TITLE = "dt=0.100000s, t=1860.000000s, nu=0.000016, Lx=1.000000, Ly=1.000000, Lz=1.000000, Nx=12, Ny=12, Nz=12 "
VARIABLES =X, Y, Z, I, J, K, U, V, W, T, Xi, FlagP, P 
ZONE F=POINT, I=12, J=12, K=12
0.000000	0.000000	0.000000	0	0	0	0.000000	0.000000	0.000000	16.666662	0.000000	1.000000	0.000000
0.050000	0.000000	0.000000	1	0	0	0.000000	0.000000	0.000000	30.000000	0.000000	1.000000	0.000000
0.150000	0.000000	0.000000	2	0	0	0.000000	0.000000	0.000000	30.000000	0.000000	1.000000	0.000000
0.250000	0.000000	0.000000	3	0	0	0.000000	0.000000	0.000000	30.000000	0.000000	1.000000	0.000000
0.350000	0.000000	0.000000	4	0	0	0.000000	0.000000	0.000000	30.000000	0.000000	1.000000	0.000000
0.450000	0.000000	0.000000	5	0	0	0.000000	0.000000	0.000000	30.000000	0.000000	1.000000	0.000000
0.550000	0.000000	0.000000	6	0	0	0.000000	0.000000	0.000000	30.000000	0.000000	1.000000	0.000000
0.650000	0.000000	0.000000	7	0	0	0.000000	0.000000	0.000000	30.000000	0.000000	1.000000	0.000000
0.750000	0.000000	0.000000	8	0	0	0.000000	0.000000	0.000000	30.000000	0.000000	1.000000	0.000000
0.850000	0.000000	0.000000	9	0	0	0.000000	0.000000	0.000000	30.000000	0.000000	1.000000	0.000000
0.950000	0.000000	0.000000	10	0	0	0.000000	0.000000	0.000000	30.000000	0.000000	1.000000	0.000000
1.000000	0.000000	0.000000	11	0	0	0.000000	0.000000	0.000000	36.666660	0.000000	1.000000	0.000000
0.000000	0.050000	0.000000	0	1	0	0.000000	0.000000	0.000000	9.999994	0.000000	1.000000	0.000000
0.050000	0.050000	0.000000	1	1	0	0.000000	0.000000	0.000000	25.136997	0.000000	1.000000	-0.091456
0.150000	0.050000	0.000000	2	1	0	0.000000	0.000000	0.000000	25.181753	0.000000	1.000000	-0.091839
0.250000	0.050000	0.000000	3	1	0	0.000000	0.000000	0.000000	25.189207	0.000000	1.000000	-0.092732
0.350000	0.050000	0.000000	4	1	0	0.000000	0.000000	0.000000	25.191303	0.000000	1.000000	-0.092916
0.450000	0.050000	0.000000	5	1	0	0.000000	0.000000	0.000000	25.193218	0.000000	1.000000	-0.092939
0.550000	0.050000	0.000000	6	1	0	0.000000	0.000000	0.000000	25.195042	0.000000	1.000000	-0.092911
0.650000	0.050000	0.000000	7	1	0	0.000000	0.000000	0.000000	25.196838	0.000000	1.000000	-0.092849
0.750000	0.050000	0.000000	8	1	0	0.000000	0.000000	0.000000	25.198685	0.000000	1.000000	-0.092753
0.850000	0.050000	0.000000	9	1	0	0.000000	0.000000	0.000000	25.202053	0.000000	1.000000	-0.092603
0.950000	0.050000	0.000000	10	1	0	0.000000	0.000000	0.000000	25.499151	0.000000	1.000000	-0.092364
1.000000	0.050000	0.000000	11	1	0	0.000000	0.000000	0.000000	39.999992	0.000000	1.000000	0.000000
0.000000	0.150000	0.000000	0	2	0	0.000000	0.000000	0.000000	9.999994	0.000000	1.000000	0.000000
0.050000	0.150000	0.000000	1	2	0	0.000000	0.000000	0.000000	25.108080	0.000000	1.000000	-0.091477
0.150000	0.150000	0.000000	2	2	0	0.000000	0.000000	0.000000	25.149471	0.000000	1.000000	-0.091855
0.250000	0.150000	0.000000	3	2	0	0.000000	0.000000	0.000000	25.158306	0.000000	1.000000	-0.092685
0.350000	0.150000	0.000000	4	2	0	0.000000	0.000000	0.000000	25.162924	0.000000	1.000000	-0.092868
0.450000	0.150000	0.000000	5	2	0	0.000000	0.000000	0.000000	25.166685	0.000000	1.000000	-0.092907
0.550000	0.150000	0.000000	6	2	0	0.000000	0.000000	0.000000	25.169632	0.000000	1.000000	-0.092891
0.650000	0.150000	0.000000	7	2	0	0.000000	0.000000	0.000000	25.172276	0.000000	1.000000	-0.092832
0.750000	0.150000	0.000000	8	2	0	0.000000	0.000000	0.000000	25.174950	0.000000	1.000000	-0.092744
0.850000	0.150000	0.000000	9	2	0	0.000000	0.000000	0.000000	25.179100	0.000000	1.000000	-0.092613
0.950000	0.150000	0.000000	10	2	0	0.000000	0.000000	0.000000	25.473608	0.000000	1.000000	-0.092394
1.000000	0.150000	0.000000	11	2	0	0.000000	0.000000	0.000000	39.999992	0.000000	1.000000	0.000000
0.000000	0.250000	0.000000	0	3	0	0.000000	0.000000	0.000000	9.999994	0.000000	1.000000	0.000000
0.050000	0.250000	0.000000	1	3	0	0.000000	0.000000	0.000000	25.104649	0.000000	1.000000	-0.091480
0.150000	0.250000	0.000000	2	3	0	0.000000	0.000000	0.000000	25.144749	0.000000	1.000000	-0.091860
0.250000	0.250000	0.000000	3	3	0	0.000000	0.000000	0.000000	25.153748	0.000000	1.000000	-0.092677
0.350000	0.250000	0.000000	4	3	0	0.000000	0.000000	0.000000	25.159058	0.000000	1.000000	-0.092862
0.450000	0.250000	0.000000	5	3	0	0.000000	0.000000	0.000000	25.163771	0.000000	1.000000	-0.092901
0.550000	0.250000	0.000000	6	3	0	0.000000	0.000000	0.000000	25.168074	0.000000	1.000000	-0.092884
0.650000	0.250000	0.000000	7	3	0	0.000000	0.000000	0.000000	25.171829	0.000000	1.000000	-0.092830
0.750000	0.250000	0.000000	8	3	0	0.000000	0.000000	0.000000	25.174561	0.000000	1.000000	-0.092740
0.850000	0.250000	0.000000	9	3	0	0.000000	0.000000	0.000000	25.178822	0.000000	1.000000	-0.092611
0.950000	0.250000	0.000000	10	3	0	0.000000	0.000000	0.000000	25.479206	0.000000	1.000000	-0.092402
1.000000	0.250000	0.000000	11	3	0	0.000000	0.000000	0.000000	39.999992	0.000000	1.000000	0.000000
0.000000	0.350000	0.000000	0	4	0	0.000000	0.000000	0.000000	9.999994	0.000000	1.000000	0.000000
0.050000	0.350000	0.000000	1	4	0	0.000000	0.000000	0.000000	25.129236	0.000000	1.000000	-0.091458
0.150000	0.350000	0.000000	2	4	0	0.000000	0.000000	0.000000	25.171259	0.000000	1.000000	-0.091843
0.250000	0.350000	0.000000	3	4	0	0.000000	0.000000	0.000000	25.178658	0.000000	1.000000	-0.092725
0.350000	0.350000	0.000000	4	4	0	0.000000	0.000000	0.000000	25.180553	0.000000	1.000000	-0.092913
0.450000	0.350000	0.000000	5	4	0	0.000000	0.000000	0.000000	25.182329	0.000000	1.000000	-0.092938
0.550000	0.350000	0.000000	6	4	0	0.000000	0.000000	0.000000	25.184111	0.000000	1.000000	-0.092912
0.650000	0.350000	0.000000	7	4	0	0.000000	0.000000	0.000000	25.185961	0.000000	1.000000	-0.092848
0.750000	0.350000	0.000000	8	4	0	0.000000	0.000000	0.000000	25.187904	0.000000	1.000000	-0.092742
0.850000	0.350000	0.000000	9	4	0	0.000000	0.000000	0.000000	25.191523	0.000000	1.000000	-0.092579
0.950000	0.350000	0.000000	10	4	0	0.000000	0.000000	0.000000	25.485304	0.000000	1.000000	-0.092320
1.000000	0.350000	0.000000	11	4	0	0.000000	0.000000	0.000000	39.999992	0.000000	1.000000	0.000000
0.000000	0.450000	0.000000	0	5	0	0.000000	0.000000	0.000000	9.999994	0.000000	1.000000	0.000000
0.050000	0.450000	0.000000	1	5	0	0.000000	0.000000	0.000000	25.140030	0.000000	1.000000	-0.091437
0.150000	0.450000	0.000000	2	5	0	0.000000	0.000000	0.000000	25.185089	0.000000	1.000000	-0.091809
0.250000	0.450000	0.000000	3	5	0	0.000000	0.000000	0.000000	25.193254	0.000000	1.000000	-0.092760
0.350000	0.450000	0.000000	4	5	0	0.000000	0.000000	0.000000	25.195463	0.000000	1.000000	-0.092958
0.450000	0.450000	0.000000	5	5	0	0.000000	0.000000	0.000000	25.197493	0.000000	1.000000	-0.092969
0.550000	0.450000	0.000000	6	5	0	0.000000	0.000000	0.000000	25.199434	0.000000	1.000000	-0.092927
0.650000	0.450000	0.000000	7	5	0	0.000000	0.000000	0.000000	25.201351	0.000000	1.000000	-0.092848
0.750000	0.450000	0.000000	8	5	0	0.000000	0.000000	0.000000	25.203329	0.000000	1.000000	-0.092727
0.850000	0.450000	0.000000	9	5	0	0.000000	0.000000	0.000000	25.206875	0.000000	1.000000	-0.092537
0.950000	0.450000	0.000000	10	5	0	0.000000	0.000000	0.000000	25.496696	0.000000	1.000000	-0.092248
1.000000	0.450000	0.000000	11	5	0	0.000000	0.000000	0.000000	39.999992	0.000000	1.000000	0.000000
0.000000	0.550000	0.000000	0	6	0	0.000000	0.000000	0.000000	9.999994	0.000000	1.000000	0.000000
0.050000	0.550000	0.000000	1	6	0	0.000000	0.000000	0.000000	25.142691	0.000000	1.000000	-0.091434
0.150000	0.550000	0.000000	2	6	0	0.000000	0.000000	0.000000	25.188152	0.000000	1.000000	-0.091807
0.250000	0.550000	0.000000	3	6	0	0.000000	0.000000	0.000000	25.196392	0.000000	1.000000	-0.092765
0.350000	0.550000	0.000000	4	6	0	0.000000	0.000000	0.000000	25.198626	0.000000	1.000000	-0.092963
0.450000	0.550000	0.000000	5	6	0	0.000000	0.000000	0.000000	25.200680	0.000000	1.000000	-0.092973
0.550000	0.550000	0.000000	6	6	0	0.000000	0.000000	0.000000	25.202656	0.000000	1.000000	-0.092929
0.650000	0.550000	0.000000	7	6	0	0.000000	0.000000	0.000000	25.204599	0.000000	1.000000	-0.092849
0.750000	0.550000	0.000000	8	6	0	0.000000	0.000000	0.000000	25.206594	0.000000	1.000000	-0.092725
0.850000	0.550000	0.000000	9	6	0	0.000000	0.000000	0.000000	25.210094	0.000000	1.000000	-0.092533
0.950000	0.550000	0.000000	10	6	0	0.000000	0.000000	0.000000	25.499462	0.000000	1.000000	-0.092241
1.000000	0.550000	0.000000	11	6	0	0.000000	0.000000	0.000000	39.999992	0.000000	1.000000	0.000000
0.000000	0.650000	0.000000	0	7	0	0.000000	0.000000	0.000000	9.999994	0.000000	1.000000	0.000000
0.050000	0.650000	0.000000	1	7	0	0.000000	0.000000	0.000000	25.131533	0.000000	1.000000	-0.091454
0.150000	0.650000	0.000000	2	7	0	0.000000	0.000000	0.000000	25.173851	0.000000	1.000000	-0.091838
0.250000	0.650000	0.000000	3	7	0	0.000000	0.000000	0.000000	25.181179	0.000000	1.000000	-0.092730
0.350000	0.650000	0.000000	4	7	0	0.000000	0.000000	0.000000	25.183052	0.000000	1.000000	-0.092919
0.450000	0.650000	0.000000	5	7	0	0.000000	0.000000	0.000000	25.184765	0.000000	1.000000	-0.092944
0.550000	0.650000	0.000000	6	7	0	0.000000	0.000000	0.000000	25.186440	0.000000	1.000000	-0.092915
0.650000	0.650000	0.000000	7	7	0	0.000000	0.000000	0.000000	25.188148	0.000000	1.000000	-0.092847
0.750000	0.650000	0.000000	8	7	0	0.000000	0.000000	0.000000	25.189980	0.000000	1.000000	-0.092739
0.850000	0.650000	0.000000	9	7	0	0.000000	0.000000	0.000000	25.193460	0.000000	1.000000	-0.092572
0.950000	0.650000	0.000000	10	7	0	0.000000	0.000000	0.000000	25.487034	0.000000	1.000000	-0.092308
1.000000	0.650000	0.000000	11	7	0	0.000000	0.000000	0.000000	39.999992	0.000000	1.000000	0.000000
0.000000	0.750000	0.000000	0	8	0	0.000000	0.000000	0.000000	9.999994	0.000000	1.000000	0.000000
0.050000	0.750000	0.000000	1	8	0	0.000000	0.000000	0.000000	25.105995	0.000000	1.000000	-0.091477
0.150000	0.750000	0.000000	2	8	0	0.000000	0.000000	0.000000	25.146193	0.000000	1.000000	-0.091856
0.250000	0.750000	0.000000	3	8	0	0.000000	0.000000	0.000000	25.155037	0.000000	1.000000	-0.092680
0.350000	0.750000	0.000000	4	8	0	0.000000	0.000000	0.000000	25.160227	0.000000	1.000000	-0.092864
0.450000	0.750000	0.000000	5	8	0	0.000000	0.000000	0.000000	25.164740	0.000000	1.000000	-0.092904
0.550000	0.750000	0.000000	6	8	0	0.000000	0.000000	0.000000	25.168781	0.000000	1.000000	-0.092886
0.650000	0.750000	0.000000	7	8	0	0.000000	0.000000	0.000000	25.172295	0.000000	1.000000	-0.092828
0.750000	0.750000	0.000000	8	8	0	0.000000	0.000000	0.000000	25.174988	0.000000	1.000000	-0.092736
0.850000	0.750000	0.000000	9	8	0	0.000000	0.000000	0.000000	25.179188	0.000000	1.000000	-0.092605
0.950000	0.750000	0.000000	10	8	0	0.000000	0.000000	0.000000	25.479052	0.000000	1.000000	-0.092393
1.000000	0.750000	0.000000	11	8	0	0.000000	0.000000	0.000000	39.999992	0.000000	1.000000	0.000000
0.000000	0.850000	0.000000	0	9	0	0.000000	0.000000	0.000000	9.999994	0.000000	1.000000	0.000000
0.050000	0.850000	0.000000	1	9	0	0.000000	0.000000	0.000000	25.106859	0.000000	1.000000	-0.091476
0.150000	0.850000	0.000000	2	9	0	0.000000	0.000000	0.000000	25.148157	0.000000	1.000000	-0.091854
0.250000	0.850000	0.000000	3	9	0	0.000000	0.000000	0.000000	25.157059	0.000000	1.000000	-0.092684
0.350000	0.850000	0.000000	4	9	0	0.000000	0.000000	0.000000	25.161880	0.000000	1.000000	-0.092866
0.450000	0.850000	0.000000	5	9	0	0.000000	0.000000	0.000000	25.165863	0.000000	1.000000	-0.092906
0.550000	0.850000	0.000000	6	9	0	0.000000	0.000000	0.000000	25.169060	0.000000	1.000000	-0.092888
0.650000	0.850000	0.000000	7	9	0	0.000000	0.000000	0.000000	25.171753	0.000000	1.000000	-0.092828
0.750000	0.850000	0.000000	8	9	0	0.000000	0.000000	0.000000	25.174475	0.000000	1.000000	-0.092739
0.850000	0.850000	0.000000	9	9	0	0.000000	0.000000	0.000000	25.178684	0.000000	1.000000	-0.092608
0.950000	0.850000	0.000000	10	9	0	0.000000	0.000000	0.000000	25.474241	0.000000	1.000000	-0.092393
1.000000	0.850000	0.000000	11	9	0	0.000000	0.000000	0.000000	39.999992	0.000000	1.000000	0.000000
0.000000	0.950000	0.000000	0	10	0	0.000000	0.000000	0.000000	9.999994	0.000000	1.000000	0.000000
0.050000	0.950000	0.000000	1	10	0	0.000000	0.000000	0.000000	25.136795	0.000000	1.000000	-0.091456
0.150000	0.950000	0.000000	2	10	0	0.000000	0.000000	0.000000	25.181391	0.000000	1.000000	-0.091840
0.250000	0.950000	0.000000	3	10	0	0.000000	0.000000	0.000000	25.188715	0.000000	1.000000	-0.092731
0.350000	0.950000	0.000000	4	10	0	0.000000	0.000000	0.000000	25.190790	0.000000	1.000000	-0.092914
0.450000	0.950000	0.000000	5	10	0	0.000000	0.000000	0.000000	25.192701	0.000000	1.000000	-0.092937
0.550000	0.950000	0.000000	6	10	0	0.000000	0.000000	0.000000	25.194534	0.000000	1.000000	-0.092909
0.650000	0.950000	0.000000	7	10	0	0.000000	0.000000	0.000000	25.196342	0.000000	1.000000	-0.092845
0.750000	0.950000	0.000000	8	10	0	0.000000	0.000000	0.000000	25.198193	0.000000	1.000000	-0.092749
0.850000	0.950000	0.000000	9	10	0	0.000000	0.000000	0.000000	25.201561	0.000000	1.000000	-0.092600
0.950000	0.950000	0.000000	10	10	0	0.000000	0.000000	0.000000	25.498755	0.000000	1.000000	-0.092363
1.000000	0.950000	0.000000	11	10	0	0.000000	0.000000	0.000000	39.999992	0.000000	1.000000	0.000000
0.000000	1.000000	0.000000	0	11	0	0.000000	0.000000	0.000000	16.666662	0.000000	1.000000	0.000000
0.050000	1.000000	0.000000	1	11	0	0.000000	0.000000	0.000000	30.000000	0.000000	1.000000	0.000000
0.150000	1.000000	0.000000	2	11	0	0.000000	0.000000	0.000000	30.000000	0.000000	1.000000	0.000000
0.250000	1.000000	0.000000	3	11	0	0.000000	0.000000	0.000000	30.000000	0.000000	1.000000	0.000000
0.350000	1.000000	0.000000	4	11	0	0.000000	0.000000	0.000000	30.000000	0.000000	1.000000	0.000000
0.450000	1.000000	0.000000	5	11	0	0.000000	0.000000	0.000000	30.000000	0.000000	1.000000	0.000000
0.550000	1.000000	0.000000	6	11	0	0.000000	0.000000	0.000000	30.000000	0.000000	1.000000	0.000000
0.650000	1.000000	0.000000	7	11	0	0.000000	0.000000	0.000000	30.000000	0.000000	1.000000	0.000000
0.750000	1.000000	0.000000	8	11	0	0.000000	0.000000	0.000000	30.000000	0.000000	1.000000	0.000000
0.850000	1.000000	0.000000	9	11	0	0.000000	0.000000	0.000000	30.000000	0.000000	1.000000	0.000000
0.950000	1.000000	0.000000	10	11	0	0.000000	0.000000	0.000000	30.000000	0.000000	1.000000	0.000000
1.000000	1.000000	0.000000	11	11	0	0.000000	0.000000	0.000000	36.666660	0.000000	1.000000	0.000000
0.000000	0.000000	0.050000	0	0	1	0.000000	0.000000	0.000000	9.999994	0.000000	1.000000	0.000000
0.050000	0.000000	0.050000	1	0	1	0.000000	0.000000	0.000000	25.136915	0.000000	1.000000	-0.091456
0.150000	0.000000	0.050000	2	0	1	0.000000	0.000000	0.000000	25.181671	0.000000	1.000000	-0.091839
0.250000	0.000000	0.050000	3	0	1	0.000000	0.000000	0.000000	25.189125	0.000000	1.000000	-0.092732
0.350000	0.000000	0.050000	4	0	1	0.000000	0.000000	0.000000	25.191221	0.000000	1.000000	-0.092916
0.450000	0.000000	0.050000	5	0	1	0.000000	0.000000	0.000000	25.193136	0.000000	1.000000	-0.092939
0.550000	0.000000	0.050000	6	0	1	0.000000	0.000000	0.000000	25.194960	0.000000	1.000000	-0.092911
0.650000	0.000000	0.050000	7	0	1	0.000000	0.000000	0.000000	25.196756	0.000000	1.000000	-0.092849
0.750000	0.000000	0.050000	8	0	1	0.000000	0.000000	0.000000	25.198603	0.000000	1.000000	-0.092753
0.850000	0.000000	0.050000	9	0	1	0.000000	0.000000	0.000000	25.201971	0.000000	1.000000	-0.092603
0.950000	0.000000	0.050000	10	0	1	0.000000	0.000000	0.000000	25.499069	0.000000	1.000000	-0.092364
1.000000	0.000000	0.050000	11	0	1	0.000000	0.000000	0.000000	39.999992	0.000000	1.000000	0.000000
0.000000	0.050000	0.050000	0	1	1	0.000000	0.000000	0.000000	9.999994	0.000000	1.000000	-0.091456
0.050000	0.050000	0.050000	1	1	1	0.022499	0.000185	-0.022685	25.136911	0.000000	-1.000000	-0.091456
0.150000	0.050000	0.050000	2	1	1	0.051210	0.000288	-0.006500	25.181667	0.000000	-1.000000	-0.091839
0.250000	0.050000	0.050000	3	1	1	0.058539	-0.000158	-0.000960	25.189121	0.000000	-1.000000	-0.092732
0.350000	0.050000	0.050000	4	1	1	0.059467	-0.000560	0.000750	25.191217	0.000000	-1.000000	-0.092916
0.450000	0.050000	0.050000	5	1	1	0.058655	-0.000812	0.001435	25.193132	0.000000	-1.000000	-0.092939
0.550000	0.050000	0.050000	6	1	1	0.057092	-0.000952	0.001892	25.194956	0.000000	-1.000000	-0.092911
0.650000	0.050000	0.050000	7	1	1	0.054878	-0.001047	0.002321	25.196753	0.000000	-1.000000	-0.092849
0.750000	0.050000	0.050000	8	1	1	0.051736	-0.001069	0.002937	25.198599	0.000000	-1.000000	-0.092753
0.850000	0.050000	0.050000	9	1	1	0.046685	-0.000910	0.004094	25.201967	0.000000	-1.000000	-0.092603
0.950000	0.050000	0.050000	10	1	1	0.021751	-0.000212	0.021962	25.499065	0.000000	-1.000000	-0.092364
1.000000	0.050000	0.050000	11	1	1	0.000000	0.000000	0.000000	39.999992	0.000000	1.000000	-0.092364
0.000000	0.150000	0.050000	0	2	1	0.000000	0.000000	0.000000	9.999994	0.000000	1.000000	-0.091477
0.050000	0.150000	0.050000	1	2	1	0.022006	0.000321	-0.021956	25.107994	0.000000	-1.000000	-0.091477
0.150000	0.150000	0.050000	2	2	1	0.049946	0.000447	-0.005804	25.149385	0.000000	-1.000000	-0.091855
0.250000	0.150000	0.050000	3	2	1	0.056848	-0.000087	-0.001198	25.158220	0.000000	-1.000000	-0.092685
0.350000	0.150000	0.050000	4	2	1	0.057709	-0.000538	-0.000476	25.162838	0.000000	-1.000000	-0.092868
0.450000	0.150000	0.050000	5	2	1	0.057100	-0.000837	-0.000285	25.166599	0.000000	-1.000000	-0.092907
0.550000	0.150000	0.050000	6	2	1	0.055804	-0.001027	-0.000083	25.169546	0.000000	-1.000000	-0.092891
0.650000	0.150000	0.050000	7	2	1	0.053914	-0.001130	0.000132	25.172190	0.000000	-1.000000	-0.092832
0.750000	0.150000	0.050000	8	2	1	0.051249	-0.001177	0.000609	25.174864	0.000000	-1.000000	-0.092744
0.850000	0.150000	0.050000	9	2	1	0.046900	-0.001019	0.001978	25.179014	0.000000	-1.000000	-0.092613
0.950000	0.150000	0.050000	10	2	1	0.022060	-0.000150	0.021786	25.473522	0.000000	-1.000000	-0.092394
1.000000	0.150000	0.050000	11	2	1	0.000000	0.000000	0.000000	39.999992	0.000000	1.000000	-0.092394
0.000000	0.250000	0.050000	0	3	1	0.000000	0.000000	0.000000	9.999994	0.000000	1.000000	-0.091480
0.050000	0.250000	0.050000	1	3	1	0.021974	0.000168	-0.021872	25.104563	0.000000	-1.000000	-0.091480
0.150000	0.250000	0.050000	2	3	1	0.049784	0.000092	-0.005613	25.144663	0.000000	-1.000000	-0.091860
0.250000	0.250000	0.050000	3	3	1	0.056546	0.000450	-0.001231	25.153662	0.000000	-1.000000	-0.092677
0.350000	0.250000	0.050000	4	3	1	0.057277	0.000816	-0.000578	25.158972	0.000000	-1.000000	-0.092862
0.450000	0.250000	0.050000	5	3	1	0.056446	0.001041	-0.000454	25.163685	0.000000	-1.000000	-0.092901
0.550000	0.250000	0.050000	6	3	1	0.054876	0.001165	-0.000383	25.167988	0.000000	-1.000000	-0.092884
0.650000	0.250000	0.050000	7	3	1	0.052818	0.001235	-0.000274	25.171743	0.000000	-1.000000	-0.092830
0.750000	0.250000	0.050000	8	3	1	0.050146	0.001145	0.000183	25.174475	0.000000	-1.000000	-0.092740
0.850000	0.250000	0.050000	9	3	1	0.045900	0.000735	0.001748	25.178736	0.000000	-1.000000	-0.092611
0.950000	0.250000	0.050000	10	3	1	0.021600	-0.000933	0.022657	25.479120	0.000000	-1.000000	-0.092402
1.000000	0.250000	0.050000	11	3	1	0.000000	0.000000	0.000000	39.999992	0.000000	1.000000	-0.092402
0.000000	0.350000	0.050000	0	4	1	0.000000	0.000000	0.000000	9.999994	0.000000	1.000000	-0.091458
0.050000	0.350000	0.050000	1	4	1	0.022501	0.000204	-0.022639	25.129150	0.000000	-1.000000	-0.091458
0.150000	0.350000	0.050000	2	4	1	0.051223	-0.000155	-0.006199	25.171173	0.000000	-1.000000	-0.091843
0.250000	0.350000	0.050000	3	4	1	0.058610	0.000622	-0.001031	25.178572	0.000000	-1.000000	-0.092725
0.350000	0.350000	0.050000	4	4	1	0.059726	0.001416	0.000220	25.180468	0.000000	-1.000000	-0.092913
0.450000	0.350000	0.050000	5	4	1	0.059172	0.001944	0.000694	25.182243	0.000000	-1.000000	-0.092938
0.550000	0.350000	0.050000	6	4	1	0.057811	0.002239	0.001096	25.184025	0.000000	-1.000000	-0.092912
0.650000	0.350000	0.050000	7	4	1	0.055701	0.002318	0.001572	25.185875	0.000000	-1.000000	-0.092848
0.750000	0.350000	0.050000	8	4	1	0.052576	0.002104	0.002272	25.187819	0.000000	-1.000000	-0.092742
0.850000	0.350000	0.050000	9	4	1	0.047505	0.001247	0.003642	25.191437	0.000000	-1.000000	-0.092579
0.950000	0.350000	0.050000	10	4	1	0.022152	-0.002082	0.022244	25.485218	0.000000	-1.000000	-0.092320
1.000000	0.350000	0.050000	11	4	1	0.000000	0.000000	0.000000	39.999992	0.000000	1.000000	-0.092320
0.000000	0.450000	0.050000	0	5	1	0.000000	0.000000	0.000000	9.999994	0.000000	1.000000	-0.091437
0.050000	0.450000	0.050000	1	5	1	0.022865	0.000165	-0.022689	25.139944	0.000000	-1.000000	-0.091437
0.150000	0.450000	0.050000	2	5	1	0.052373	-0.000105	-0.006714	25.185003	0.000000	-1.000000	-0.091809
0.250000	0.450000	0.050000	3	5	1	0.060328	0.000270	-0.001095	25.193169	0.000000	-1.000000	-0.092760
0.350000	0.450000	0.050000	4	5	1	0.061505	0.000691	0.000689	25.195377	0.000000	-1.000000	-0.092958
0.450000	0.450000	0.050000	5	5	1	0.060795	0.000981	0.001351	25.197407	0.000000	-1.000000	-0.092969
0.550000	0.450000	0.050000	6	5	1	0.059329	0.001121	0.001767	25.199348	0.000000	-1.000000	-0.092927
0.650000	0.450000	0.050000	7	5	1	0.057128	0.001128	0.002184	25.201265	0.000000	-1.000000	-0.092848
0.750000	0.450000	0.050000	8	5	1	0.053770	0.000966	0.002785	25.203243	0.000000	-1.000000	-0.092727
0.850000	0.450000	0.050000	9	5	1	0.048208	0.000475	0.003845	25.206789	0.000000	-1.000000	-0.092537
0.950000	0.450000	0.050000	10	5	1	0.022347	-0.001158	0.021331	25.496611	0.000000	-1.000000	-0.092248
1.000000	0.450000	0.050000	11	5	1	0.000000	0.000000	0.000000	39.999992	0.000000	1.000000	-0.092248
0.000000	0.550000	0.050000	0	6	1	0.000000	0.000000	0.000000	9.999994	0.000000	1.000000	-0.091434
0.050000	0.550000	0.050000	1	6	1	0.022895	-0.000113	-0.022794	25.142605	0.000000	-1.000000	-0.091434
0.150000	0.550000	0.050000	2	6	1	0.052464	0.000112	-0.006820	25.188066	0.000000	-1.000000	-0.091807
0.250000	0.550000	0.050000	3	6	1	0.060467	-0.000166	-0.001110	25.196306	0.000000	-1.000000	-0.092765
0.350000	0.550000	0.050000	4	6	1	0.061654	-0.000491	0.000770	25.198540	0.000000	-1.000000	-0.092963
0.450000	0.550000	0.050000	5	6	1	0.060932	-0.000704	0.001492	25.200594	0.000000	-1.000000	-0.092973
0.550000	0.550000	0.050000	6	6	1	0.059452	-0.000804	0.001946	25.202570	0.000000	-1.000000	-0.092929
0.650000	0.550000	0.050000	7	6	1	0.057238	-0.000816	0.002386	25.204514	0.000000	-1.000000	-0.092849
0.750000	0.550000	0.050000	8	6	1	0.053853	-0.000703	0.003000	25.206509	0.000000	-1.000000	-0.092725
0.850000	0.550000	0.050000	9	6	1	0.048242	-0.000338	0.004024	25.210009	0.000000	-1.000000	-0.092533
0.950000	0.550000	0.050000	10	6	1	0.022350	0.000909	0.021299	25.499376	0.000000	-1.000000	-0.092241
1.000000	0.550000	0.050000	11	6	1	0.000000	0.000000	0.000000	39.999992	0.000000	1.000000	-0.092241
0.000000	0.650000	0.050000	0	7	1	0.000000	0.000000	0.000000	9.999994	0.000000	1.000000	-0.091454
0.050000	0.650000	0.050000	1	7	1	0.022584	-0.000113	-0.022686	25.131447	0.000000	-1.000000	-0.091454
0.150000	0.650000	0.050000	2	7	1	0.051453	0.000234	-0.006261	25.173765	0.000000	-1.000000	-0.091838
0.250000	0.650000	0.050000	3	7	1	0.058922	-0.000553	-0.001016	25.181093	0.000000	-1.000000	-0.092730
0.350000	0.650000	0.050000	4	7	1	0.060047	-0.001368	0.000306	25.182966	0.000000	-1.000000	-0.092919
0.450000	0.650000	0.050000	5	7	1	0.059464	-0.001906	0.000816	25.184679	0.000000	-1.000000	-0.092944
0.550000	0.650000	0.050000	6	7	1	0.058058	-0.002212	0.001240	25.186354	0.000000	-1.000000	-0.092915
0.650000	0.650000	0.050000	7	7	1	0.055902	-0.002314	0.001703	25.188063	0.000000	-1.000000	-0.092847
0.750000	0.650000	0.050000	8	7	1	0.052723	-0.002125	0.002393	25.189894	0.000000	-1.000000	-0.092739
0.850000	0.650000	0.050000	9	7	1	0.047571	-0.001289	0.003718	25.193375	0.000000	-1.000000	-0.092572
0.950000	0.650000	0.050000	10	7	1	0.022161	0.001984	0.022136	25.486948	0.000000	-1.000000	-0.092308
1.000000	0.650000	0.050000	11	7	1	0.000000	0.000000	0.000000	39.999992	0.000000	1.000000	-0.092308
0.000000	0.750000	0.050000	0	8	1	0.000000	0.000000	0.000000	9.999994	0.000000	1.000000	-0.091477
0.050000	0.750000	0.050000	1	8	1	0.022017	-0.000112	-0.021917	25.105909	0.000000	-1.000000	-0.091477
0.150000	0.750000	0.050000	2	8	1	0.049915	-0.000013	-0.005657	25.146107	0.000000	-1.000000	-0.091856
0.250000	0.750000	0.050000	3	8	1	0.056722	-0.000437	-0.001211	25.154951	0.000000	-1.000000	-0.092680
0.350000	0.750000	0.050000	4	8	1	0.057469	-0.000868	-0.000568	25.160141	0.000000	-1.000000	-0.092864
0.450000	0.750000	0.050000	5	8	1	0.056657	-0.001144	-0.000422	25.164654	0.000000	-1.000000	-0.092904
0.550000	0.750000	0.050000	6	8	1	0.055093	-0.001306	-0.000334	25.168695	0.000000	-1.000000	-0.092886
0.650000	0.750000	0.050000	7	8	1	0.053039	-0.001396	-0.000222	25.172209	0.000000	-1.000000	-0.092828
0.750000	0.750000	0.050000	8	8	1	0.050349	-0.001309	0.000262	25.174902	0.000000	-1.000000	-0.092736
0.850000	0.750000	0.050000	9	8	1	0.046043	-0.000854	0.001834	25.179102	0.000000	-1.000000	-0.092605
0.950000	0.750000	0.050000	10	8	1	0.021652	0.001045	0.022616	25.478966	0.000000	-1.000000	-0.092393
1.000000	0.750000	0.050000	11	8	1	0.000000	0.000000	0.000000	39.999992	0.000000	1.000000	-0.092393
0.000000	0.850000	0.050000	0	9	1	0.000000	0.000000	0.000000	9.999994	0.000000	1.000000	-0.091476
0.050000	0.850000	0.050000	1	9	1	0.021998	-0.000291	-0.021920	25.106773	0.000000	-1.000000	-0.091476
0.150000	0.850000	0.050000	2	9	1	0.049934	-0.000390	-0.005782	25.148071	0.000000	-1.000000	-0.091854
0.250000	0.850000	0.050000	3	9	1	0.056823	0.000098	-0.001202	25.156973	0.000000	-1.000000	-0.092684
0.350000	0.850000	0.050000	4	9	1	0.057657	0.000510	-0.000512	25.161795	0.000000	-1.000000	-0.092866
0.450000	0.850000	0.050000	5	9	1	0.057000	0.000769	-0.000320	25.165777	0.000000	-1.000000	-0.092906
0.550000	0.850000	0.050000	6	9	1	0.055630	0.000926	-0.000136	25.168974	0.000000	-1.000000	-0.092888
0.650000	0.850000	0.050000	7	9	1	0.053695	0.001015	0.000037	25.171667	0.000000	-1.000000	-0.092828
0.750000	0.850000	0.050000	8	9	1	0.051030	0.001065	0.000495	25.174389	0.000000	-1.000000	-0.092739
0.850000	0.850000	0.050000	9	9	1	0.046715	0.000942	0.001860	25.178598	0.000000	-1.000000	-0.092608
0.950000	0.850000	0.050000	10	9	1	0.021982	0.000255	0.021808	25.474155	0.000000	-1.000000	-0.092393
1.000000	0.850000	0.050000	11	9	1	0.000000	0.000000	0.000000	39.999992	0.000000	1.000000	-0.092393
0.000000	0.950000	0.050000	0	10	1	0.000000	0.000000	0.000000	9.999994	0.000000	1.000000	-0.091456
0.050000	0.950000	0.050000	1	10	1	0.022509	-0.000185	-0.022693	25.136709	0.000000	-1.000000	-0.091456
0.150000	0.950000	0.050000	2	10	1	0.051218	-0.000272	-0.006473	25.181305	0.000000	-1.000000	-0.091840
0.250000	0.950000	0.050000	3	10	1	0.058533	0.000174	-0.000940	25.188629	0.000000	-1.000000	-0.092731
0.350000	0.950000	0.050000	4	10	1	0.059460	0.000570	0.000758	25.190704	0.000000	-1.000000	-0.092914
0.450000	0.950000	0.050000	5	10	1	0.058640	0.000813	0.001445	25.192616	0.000000	-1.000000	-0.092937
0.550000	0.950000	0.050000	6	10	1	0.057057	0.000947	0.001898	25.194448	0.000000	-1.000000	-0.092909
0.650000	0.950000	0.050000	7	10	1	0.054828	0.001040	0.002319	25.196257	0.000000	-1.000000	-0.092845
0.750000	0.950000	0.050000	8	10	1	0.051688	0.001067	0.002928	25.198107	0.000000	-1.000000	-0.092749
0.850000	0.950000	0.050000	9	10	1	0.046661	0.000916	0.004082	25.201475	0.000000	-1.000000	-0.092600
0.950000	0.950000	0.050000	10	10	1	0.021748	0.000215	0.021962	25.498669	0.000000	-1.000000	-0.092363
1.000000	0.950000	0.050000	11	10	1	0.000000	0.000000	0.000000	39.999992	0.000000	1.000000	-0.092363
0.000000	1.000000	0.050000	0	11	1	0.000000	0.000000	0.000000	9.999994	0.000000	1.000000	0.000000
0.050000	1.000000	0.050000	1	11	1	0.000000	0.000000	0.000000	25.136713	0.000000	1.000000	-0.091456
0.150000	1.000000	0.050000	2	11	1	0.000000	0.000000	0.000000	25.181309	0.000000	1.000000	-0.091840
0.250000	1.000000	0.050000	3	11	1	0.000000	0.000000	0.000000	25.188633	0.000000	1.000000	-0.092731
0.350000	1.000000	0.050000	4	11	1	0.000000	0.000000	0.000000	25.190708	0.000000	1.000000	-0.092914
0.450000	1.000000	0.050000	5	11	1	0.000000	0.000000	0.000000	25.192619	0.000000	1.000000	-0.092937
0.550000	1.000000	0.050000	6	11	1	0.000000	0.000000	0.000000	25.194452	0.000000	1.000000	-0.092909
0.650000	1.000000	0.050000	7	11	1	0.000000	0.000000	0.000000	25.196260	0.000000	1.000000	-0.092845
0.750000	1.000000	0.050000	8	11	1	0.000000	0.000000	0.000000	25.198111	0.000000	1.000000	-0.092749
0.850000	1.000000	0.050000	9	11	1	0.000000	0.000000	0.000000	25.201479	0.000000	1.000000	-0.092600
0.950000	1.000000	0.050000	10	11	1	0.000000	0.000000	0.000000	25.498672	0.000000	1.000000	-0.092363
1.000000	1.000000	0.050000	11	11	1	0.000000	0.000000	0.000000	39.999992	0.000000	1.000000	0.000000
0.000000	0.000000	0.150000	0	0	2	0.000000	0.000000	0.000000	9.999994	0.000000	1.000000	0.000000
0.050000	0.000000	0.150000	1	0	2	0.000000	0.000000	0.000000	25.425837	0.000000	1.000000	-0.074231
0.150000	0.000000	0.150000	2	0	2	0.000000	0.000000	0.000000	25.513554	0.000000	1.000000	-0.074701
0.250000	0.000000	0.150000	3	0	2	0.000000	0.000000	0.000000	25.490469	0.000000	1.000000	-0.074833
0.350000	0.000000	0.150000	4	0	2	0.000000	0.000000	0.000000	25.440954	0.000000	1.000000	-0.074729
0.450000	0.000000	0.150000	5	0	2	0.000000	0.000000	0.000000	25.407951	0.000000	1.000000	-0.074667
0.550000	0.000000	0.150000	6	0	2	0.000000	0.000000	0.000000	25.385750	0.000000	1.000000	-0.074613
0.650000	0.000000	0.150000	7	0	2	0.000000	0.000000	0.000000	25.368120	0.000000	1.000000	-0.074541
0.750000	0.000000	0.150000	8	0	2	0.000000	0.000000	0.000000	25.349455	0.000000	1.000000	-0.074451
0.850000	0.000000	0.150000	9	0	2	0.000000	0.000000	0.000000	25.322664	0.000000	1.000000	-0.074317
0.950000	0.000000	0.150000	10	0	2	0.000000	0.000000	0.000000	25.577045	0.000000	1.000000	-0.073551
1.000000	0.000000	0.150000	11	0	2	0.000000	0.000000	0.000000	39.999992	0.000000	1.000000	0.000000
0.000000	0.050000	0.150000	0	1	2	0.000000	0.000000	0.000000	9.999994	0.000000	1.000000	-0.074231