VARIABLES = "X"
 "Y"
 "Z"
 "I"
 "J"
 "K"
 "U"
 "V"
 "W"
 "T"
 "Xi"
 "FlagP"
 "P"
ZONE
DT=(DOUBLE,DOUBLE,DOUBLE,DOUBLE,DOUBLE,DOUBLE,DOUBLE,DOUBLE,DOUBLE,DOUBLE,DOUBLE,DOUBLE,DOUBLE)
                      0                     0.5                     0.5                       0                     5.5                     5.5                       0                       0                       0         9.9999942779541                       0                       1    -0.00548049970529974 
     0.0101010101010101                     0.5                     0.5       0.202020199009866                     5.5                     5.5   -0.000101161608846501   3.64646472416893E-005     -0.0145631303929094        13.1894506692049                       0       0.595959601980267    -0.00548049970529974 
     0.0202020202020202                     0.5                     0.5       0.404040398019733                     5.5                     5.5   -0.000202323217693002   7.29292944833787E-005     -0.0291262607858187        16.3789070604557                       0       0.191919203960534    -0.00548049970529974 
     0.0303030303030303                     0.5                     0.5       0.606060597029599                     5.5                     5.5   -0.000303484826539502    0.000109393941725068     -0.0436893911787281        19.5683634517066                       0      -0.212121194059199    -0.00548049970529974 
     0.0404040404040404                     0.5                     0.5       0.808080796039466                     5.5                     5.5   -0.000404646435386003    0.000145858588966757     -0.0582525215716375        22.7578198429574                       0      -0.616161592078932    -0.00548049970529974 
     0.0505050505050505                     0.5                     0.5        1.00505049733652                     5.5                     5.5   -0.000506205771385993    0.000180155310095541     -0.0717218834586535        25.7886361677767                       0                      -1    -0.00548099465427977 
     0.0606060606060606                     0.5                     0.5        1.10606059307853                     5.5                     5.5   -0.000615321935036953    0.000173261371115875     -0.0644096114627766        25.8052865498269                       0                      -1    -0.00549089364848354 
     0.0707070707070707                     0.5                     0.5        1.20707068882055                     5.5                     5.5   -0.000724438098687913     0.00016636743213621     -0.0570973394668997         25.821936931877                       0                      -1    -0.00550079264268731 
     0.0808080808080808                     0.5                     0.5        1.30808078456256                     5.5                     5.5   -0.000833554262338874    0.000159473493156544     -0.0497850674710228        25.8385873139272                       0                      -1    -0.00551069163689108 
     0.0909090909090909                     0.5                     0.5        1.40909088030458                     5.5                     5.5   -0.000942670425989834    0.000152579554176879     -0.0424727954751458        25.8552376959773                       0                      -1    -0.00552059063109484 
      0.101010101010101                     0.5                     0.5        1.51010097604659                     5.5                     5.5    -0.00105178658964079    0.000145685615197213     -0.0351605234792689        25.8718880780275                       0                      -1    -0.00553048962529861 
      0.111111111111111                     0.5                     0.5         1.6111110717886                     5.5                     5.5    -0.00116090275329175    0.000138791676217548      -0.027848251483392        25.8885384600776                       0                      -1    -0.00554038861950238 
      0.121212121212121                     0.5                     0.5        1.71212116753062                     5.5                     5.5    -0.00127001891694271    0.000131897737237882     -0.0205359794875151        25.9051888421278                       0                      -1    -0.00555028761370615 
      0.131313131313131                     0.5                     0.5        1.81313126327263                     5.5                     5.5    -0.00137913508059367    0.000125003798258217     -0.0132237074916381         25.921839224178                       0                      -1    -0.00556018660790992 
      0.141414141414141                     0.5                     0.5        1.91414135901465                     5.5                     5.5    -0.00148825124424463    0.000118109859278551    -0.00591143549576122        25.9384896062281                       0                      -1    -0.00557008560211369 
      0.151515151515152                     0.5                     0.5        2.01515145644997                     5.5                     5.5    -0.00159060607173134    0.000110799254934767    0.000307401517460151        25.9525711466922                       0                      -1    -0.00557848081620917 
      0.161616161616162                     0.5                     0.5        2.11616156348074                     5.5                     5.5    -0.00165464648363013    0.000101127535933447    0.000330078285713586        25.9520958507974                       0                      -1    -0.00557835457025264 
      0.171717171717172                     0.5                     0.5        2.21717167051151                     5.5                     5.5    -0.00171868689552892   9.14558169321281E-005    0.000352755053967021        25.9516205549027                       0                      -1    -0.00557822832429611 
      0.181818181818182                     0.5                     0.5        2.31818177754229                     5.5                     5.5    -0.00178272730742771   8.17840979308088E-005    0.000375431822220456         25.951145259008                       0                      -1    -0.00557810207833959 
      0.191919191919192                     0.5                     0.5        2.41919188457306                     5.5                     5.5    -0.00184676771932651   7.21123789294895E-005    0.000398108590473891        25.9506699631133                       0                      -1    -0.00557797583238306 
      0.202020202020202                     0.5                     0.5        2.52020199160383                     5.5                     5.5     -0.0019108081312253   6.24406599281702E-005    0.000420785358727326        25.9501946672186                       0                      -1    -0.00557784958642653 
      0.212121212121212                     0.5                     0.5         2.6212120986346                     5.5                     5.5    -0.00197484854312409   5.27689409268509E-005    0.000443462126980761        25.9497193713239                       0                      -1       -0.00557772334047 
      0.222222222222222                     0.5                     0.5        2.72222220566538                     5.5                     5.5    -0.00203888895502288   4.30972219255316E-005    0.000466138895234196        25.9492440754292                       0                      -1    -0.00557759709451347 
      0.232323232323232                     0.5                     0.5        2.82323231269615                     5.5                     5.5    -0.00210292936692167   3.34255029242123E-005    0.000488815663487631        25.9487687795345                       0                      -1    -0.00557747084855694 
      0.242424242424242                     0.5                     0.5        2.92424241972692                     5.5                     5.5    -0.00216696977882046    2.3753783922893E-005    0.000511492431741067        25.9482934836398                       0                      -1    -0.00557734460260042 
      0.252525252525253                     0.5                     0.5        3.02525252675769                     5.5                     5.5     -0.0022177462963198   1.70113583740595E-005     0.00052867677512708         25.947915963451                       0                      -1    -0.00557717415409633 
      0.262626262626263                     0.5                     0.5        3.12626263378847                     5.5                     5.5     -0.0022287311306208   1.90568131826832E-005    0.000529383843910829        25.9478317703801                       0                      -1    -0.00557687109794957 
      0.272727272727273                     0.5                     0.5        3.22727274081924                     5.5                     5.5    -0.00223971596492179    2.1102267991307E-005    0.000530090912694577        25.9477475773092                       0                      -1     -0.0055765680418028 
      0.282828282828283                     0.5                     0.5        3.32828284785001                     5.5                     5.5    -0.00225070079922278   2.31477227999307E-005    0.000530797981478325        25.9476633842382                       0                      -1    -0.00557626498565604 
      0.292929292929293                     0.5                     0.5        3.42929295488078                     5.5                     5.5    -0.00226168563352378   2.51931776085545E-005    0.000531505050262074        25.9475791911673                       0                      -1    -0.00557596192950928 
      0.303030303030303                     0.5                     0.5        3.53030306191156                     5.5                     5.5    -0.00227267046782477   2.72386324171782E-005    0.000532212119045822        25.9474949980964                       0                      -1    -0.00557565887336252 
      0.313131313131313                     0.5                     0.5        3.63131316894233                     5.5                     5.5    -0.00228365530212576   2.92840872258019E-005     0.00053291918782957        25.9474108050254                       0                      -1    -0.00557535581721575 
      0.323232323232323                     0.5                     0.5         3.7323232759731                     5.5                     5.5    -0.00229464013642676   3.13295420344257E-005    0.000533626256613319        25.9473266119545                       0                      -1    -0.00557505276106899 
      0.333333333333333                     0.5                     0.5        3.83333338300387                     5.5                     5.5    -0.00230562497072775   3.33749968430494E-005    0.000534333325397067        25.9472424188836                       0                      -1    -0.00557474970492223 
      0.343434343434343                     0.5                     0.5        3.93434349003465                     5.5                     5.5    -0.00231660980502874   3.54204516516732E-005    0.000535040394180815        25.9471582258126                       0                      -1    -0.00557444664877546 
      0.353535353535354                     0.5                     0.5        4.03535359706542                     5.5                     5.5    -0.00232347595043669   3.65290364639774E-005    0.000535765140926622        25.9470744710473                       0                      -1    -0.00557418782817639 
      0.363636363636364                     0.5                     0.5        4.13636370409619                     5.5                     5.5    -0.00232269312202592   3.58977243674672E-005    0.000536522718088237        25.9469915302761                       0                      -1    -0.00557401115909564 
      0.373737373737374                     0.5                     0.5        4.23737381112696                     5.5                     5.5    -0.00232191029361515    3.5266412270957E-005    0.000537280295249852        25.9469085895048                       0                      -1    -0.00557383449001489 
      0.383838383838384                     0.5                     0.5        4.33838391815774                     5.5                     5.5    -0.00232112746520438   3.46351001744468E-005    0.000538037872411467        25.9468256487336                       0                      -1    -0.00557365782093415 
      0.393939393939394                     0.5                     0.5        4.43939402518851                     5.5                     5.5    -0.00232034463679362   3.40037880779366E-005    0.000538795449573082        25.9467427079623                       0                      -1     -0.0055734811518534 
      0.404040404040404                     0.5                     0.5        4.54040413221928                     5.5                     5.5    -0.00231956180838285   3.33724759814264E-005    0.000539553026734697        25.9466597671911                       0                      -1    -0.00557330448277266 
      0.414141414141414                     0.5                     0.5        4.64141423925005                     5.5                     5.5    -0.00231877897997208   3.27411638849162E-005    0.000540310603896313        25.9465768264198                       0                      -1    -0.00557312781369191 
      0.424242424242424                     0.5                     0.5        4.74242434628083                     5.5                     5.5    -0.00231799615156131   3.21098517884059E-005    0.000541068181057928        25.9464938856486                       0                      -1    -0.00557295114461117 
      0.434343434343434                     0.5                     0.5         4.8434344533116                     5.5                     5.5    -0.00231721332315054   3.14785396918957E-005    0.000541825758219543        25.9464109448773                       0                      -1    -0.00557277447553042 
      0.444444444444444                     0.5                     0.5        4.94444456034237                     5.5                     5.5    -0.00231643049473978   3.08472275953855E-005    0.000542583335381158        25.9463280041061                       0                      -1    -0.00557259780644968 
      0.454545454545455                     0.5                     0.5         5.0454546538266                     5.5                     5.5    -0.00230290899794972   3.14318272408985E-005    0.000542761364499191         25.946220007661                       0                      -1    -0.00557240968633094 
      0.464646464646465                     0.5                     0.5        5.14646473075402                     5.5                     5.5    -0.00227381809182588   3.35025341514464E-005    0.000542231060497114        25.9460813877606                       0                      -1    -0.00557220757056584 
      0.474747474747475                     0.5                     0.5        5.24747480768145                     5.5                     5.5    -0.00224472718570203   3.55732410619942E-005    0.000541700756495037        25.9459427678602                       0                      -1    -0.00557200545480074 
      0.484848484848485                     0.5                     0.5        5.34848488460887                     5.5                     5.5    -0.00221563627957818   3.76439479725421E-005     0.00054117045249296        25.9458041479598                       0                      -1    -0.00557180333903564 
      0.494949494949495                     0.5                     0.5        5.44949496153629                     5.5                     5.5    -0.00218654537345433   3.97146548830899E-005    0.000540640148490884        25.9456655280593                       0                      -1    -0.00557160122327054 
      0.505050505050505                     0.5                     0.5        5.55050503846371                     5.5                     5.5    -0.00215745446733048   4.17853617936378E-005    0.000540109844488807        25.9455269081589                       0                      -1    -0.00557139910750544 
      0.515151515151515                     0.5                     0.5        5.65151511539113                     5.5                     5.5    -0.00212836356120664   4.38560687041856E-005     0.00053957954048673        25.9453882882585                       0                      -1    -0.00557119699174034 
      0.525252525252525                     0.5                     0.5        5.75252519231855                     5.5                     5.5    -0.00209927265508279   4.59267756147335E-005    0.000539049236484653        25.9452496683581                       0                      -1    -0.00557099487597524 
      0.535353535353535                     0.5                     0.5        5.85353526924598                     5.5                     5.5    -0.00207018174895894   4.79974825252813E-005    0.000538518932482577        25.9451110484577                       0                      -1    -0.00557079276021014 
      0.545454545454545                     0.5                     0.5         5.9545453461734                     5.5                     5.5    -0.00204109084283509   5.00681894358292E-005      0.0005379886284805        25.9449724285573                       0                      -1    -0.00557059064444504 
      0.555555555555556                     0.5                     0.5        6.05555545621445                     5.5                     5.5    -0.00199274996700388   5.16805630425631E-005    0.000537055549030708        25.9448390538108                       0                      -1    -0.00557041636476085 
      0.565656565656566                     0.5                     0.5        6.15656559334859                     5.5                     5.5    -0.00192865904085565   5.29179348853062E-005    0.000535792924461396        25.9447099705743                       0                      -1    -0.00557026486016057 
      0.575757575757576                     0.5                     0.5        6.25757573048273                     5.5                     5.5    -0.00186456811470742   5.41553067280493E-005    0.000534530299892084        25.9445808873378                       0                      -1    -0.00557011335556028 
      0.585858585858586                     0.5                     0.5        6.35858586761687                     5.5                     5.5    -0.00180047718855919   5.53926785707924E-005    0.000533267675322772        25.9444518041014                       0                      -1       -0.00556996185096 
      0.595959595959596                     0.5                     0.5        6.45959600475101                     5.5                     5.5    -0.00173638626241096   5.66300504135355E-005     0.00053200505075346        25.9443227208649                       0                      -1    -0.00556981034635971 
      0.606060606060606                     0.5                     0.5        6.56060614188515                     5.5                     5.5    -0.00167229533626273   5.78674222562786E-005    0.000530742426184148        25.9441936376284                       0                      -1    -0.00556965884175943 
      0.616161616161616                     0.5                     0.5        6.66161627901929                     5.5                     5.5     -0.0016082044101145   5.91047940990216E-005    0.000529479801614837         25.944064554392                       0                      -1    -0.00556950733715914 
      0.626262626262626                     0.5                     0.5        6.76262641615343                     5.5                     5.5    -0.00154411348396627   6.03421659417647E-005    0.000528217177045525        25.9439354711555                       0                      -1    -0.00556935583255886 
      0.636363636363636                     0.5                     0.5        6.86363655328757                     5.5                     5.5    -0.00148002255781804   6.15795377845078E-005    0.000526954552476213         25.943806387919                       0                      -1    -0.00556920432795857 
      0.646464646464647                     0.5                     0.5        6.96464669042172                     5.5                     5.5    -0.00141593163166982   6.28169096272509E-005    0.000525691927906901        25.9436773046826                       0                      -1    -0.00556905282335829 
      0.656565656565657                     0.5                     0.5        7.06565678842135                     5.5                     5.5    -0.00132971439041876     6.275756005515E-005    0.000515696948965949        25.9435417095161                       0                      -1    -0.00556893417039125 
      0.666666666666667                     0.5                     0.5        7.16666686534877                     5.5                     5.5    -0.00123158310310765   6.19999831193104E-005    0.000500999981839758        25.9434026079621                       0                      -1    -0.00556883320658166 
      0.676767676767677                     0.5                     0.5        7.26767694227619                     5.5                     5.5    -0.00113345181579654   6.12424061834707E-005    0.000486303014713567        25.9432635064081                       0                      -1    -0.00556873224277208 
      0.686868686868687                     0.5                     0.5        7.36868701920361                     5.5                     5.5    -0.00103532052848544   6.04848292476311E-005    0.000471606047587377        25.9431244048541                       0                      -1    -0.00556863127896249 
      0.696969696969697                     0.5                     0.5        7.46969709613103                     5.5                     5.5    -0.00093718924117433   5.97272523117914E-005    0.000456909080461186        25.9429853033001                       0                      -1    -0.00556853031515291 
      0.707070707070707                     0.5                     0.5        7.57070717305846                     5.5                     5.5   -0.000839057953863224   5.89696753759518E-005    0.000442212113334995        25.9428462017461                       0                      -1    -0.00556842935134332 
      0.717171717171717                     0.5                     0.5        7.67171724998588                     5.5                     5.5   -0.000740926666552118   5.82120984401121E-005    0.000427515146208804        25.9427071001921                       0                      -1    -0.00556832838753374 
      0.727272727272727                     0.5                     0.5         7.7727273269133                     5.5                     5.5   -0.000642795379241011   5.74545215042725E-005    0.000412818179082614        25.9425679986381                       0                      -1    -0.00556822742372415 
      0.737373737373737                     0.5                     0.5        7.87373740384072                     5.5                     5.5   -0.000544664091929905   5.66969445684329E-005    0.000398121211956423        25.9424288970841                       0                      -1    -0.00556812645991456 
      0.747474747474748                     0.5                     0.5        7.97474748076814                     5.5                     5.5   -0.000446532804618798   5.59393676325932E-005    0.000383424244830232        25.9422897955301                       0                      -1    -0.00556802549610498 
      0.757575757575758                     0.5                     0.5        8.07575755769557                     5.5                     5.5   -0.000356583335206233   4.92348234360385E-005    0.000371227277403126        25.9411389324653                       0                      -1     -0.0055680002375139 
      0.767676767676768                     0.5                     0.5        8.17676763462299                     5.5                     5.5   -0.000269361138426515   4.05479568192454E-005    0.000359863643209047        25.9396508155635                       0                      -1    -0.00556800021399566 
      0.777777777777778                     0.5                     0.5        8.27777771155041                     5.5                     5.5   -0.000182138941646796   3.18610902024523E-005    0.000348500009014968        25.9381626986618                       0                      -1    -0.00556800019047742 
      0.787878787878788                     0.5                     0.5        8.37878778847783                     5.5                     5.5  -9.49167448670774E-005   2.31742235856592E-005     0.00033713637482089          25.93667458176                       0                      -1    -0.00556800016695918 
      0.797979797979798                     0.5                     0.5        8.47979786540526                     5.5                     5.5  -7.69454808735835E-006   1.44873569688661E-005    0.000325772740626811        25.9351864648583                       0                      -1    -0.00556800014344094 
      0.808080808080808                     0.5                     0.5        8.58080794233268                     5.5                     5.5   7.95276486923597E-005   5.80049035207302E-006    0.000314409106432733        25.9336983479565                       0                      -1     -0.0055680001199227 
      0.818181818181818                     0.5                     0.5         8.6818180192601                     5.5                     5.5    0.000166749845472079  -2.88637626472013E-006    0.000303045472238654        25.9322102310548                       0                      -1    -0.00556800009640446 
      0.828282828282828                     0.5                     0.5        8.78282809618752                     5.5                     5.5    0.000253972042251797  -1.15732428815132E-005    0.000291681838044575         25.930722114153                       0                      -1    -0.00556800007288621 
      0.838383838383838                     0.5                     0.5        8.88383817311494                     5.5                     5.5    0.000341194239031515  -2.02601094983062E-005    0.000280318203850497        25.9292339972512                       0                      -1    -0.00556800004936797 
      0.848484848484849                     0.5                     0.5        8.98484825004237                     5.5                     5.5    0.000428416435811234  -2.89469761150994E-005    0.000268954569656418        25.9277458803495                       0                      -1    -0.00556800002584973 
      0.858585858585859                     0.5                     0.5        9.08585837814536                     5.5                     5.5    0.000435446956930025  -5.26590590244727E-005     0.00578508869208348        25.9252263086175                       0                      -1    -0.00555967179617865 
      0.868686868686869                     0.5                     0.5         9.1868685152795                     5.5                     5.5    0.000428325743893483  -7.90226997775564E-005      0.0122766816529898        25.9225247120752                       0                      -1    -0.00554987385586123 
      0.878787878787879                     0.5                     0.5        9.28787865241364                     5.5                     5.5     0.00042120453085694    -0.00010538634053064      0.0187682746138961        25.9198231155329                       0                      -1    -0.00554007591554382 
      0.888888888888889                     0.5                     0.5        9.38888878954778                     5.5                     5.5    0.000414083317820398   -0.000131749981283723      0.0252598675748023        25.9171215189906                       0                      -1     -0.0055302779752264 
      0.898989898989899                     0.5                     0.5        9.48989892668192                     5.5                     5.5    0.000406962104783855   -0.000158113622036807      0.0317514605357086        25.9144199224484                       0                      -1    -0.00552048003490899 
      0.909090909090909                     0.5                     0.5        9.59090906381606                     5.5                     5.5    0.000399840891747312    -0.00018447726278989      0.0382430534966149        25.9117183259061                       0                      -1    -0.00551068209459157 
      0.919191919191919                     0.5                     0.5         9.6919192009502                     5.5                     5.5     0.00039271967871077   -0.000210840903542974      0.0447346464575212        25.9090167293638                       0                      -1    -0.00550088415427416 
      0.929292929292929                     0.5                     0.5        9.79292933808434                     5.5                     5.5    0.000385598465674227   -0.000237204544296057      0.0512262394184275        25.9063151328215                       0                      -1    -0.00549108621395675 
      0.939393939393939                     0.5                     0.5        9.89393947521848                     5.5                     5.5    0.000378477252637685   -0.000263568185049141      0.0577178323793338        25.9036135362792                       0                      -1    -0.00548128827363933 
       0.94949494949495                     0.5                     0.5        9.99494961235263                     5.5                     5.5    0.000371356039601142   -0.000289931825802224        0.06420942534024        25.9009119397369                       0                      -1    -0.00547149033332192 