TITLE = "dt=10.000000s, t=7260.000000s, nu=0.000015, Lx=1.000000, Ly=1.000000, Lz=1.000000, Nx=22, Ny=22, Nz=22 "
VARIABLES =X, Y, Z, I, J, K, U, V, W, T, Xi, FlagP, P 
ZONE F=POINT, I=22, J=22, K=22
0.000000	0.000000	0.000000	0	0	0	0.000000	0.000000	0.000000	0.666667	0.000000	1.000000	0.000000
0.025000	0.000000	0.000000	1	0	0	0.000000	0.000000	0.000000	0.000000	0.000000	1.000000	0.000000
0.075000	0.000000	0.000000	2	0	0	0.000000	0.000000	0.000000	0.000000	0.000000	1.000000	0.000000
0.125000	0.000000	0.000000	3	0	0	0.000000	0.000000	0.000000	0.000000	0.000000	1.000000	0.000000
0.175000	0.000000	0.000000	4	0	0	0.000000	0.000000	0.000000	0.000000	0.000000	1.000000	0.000000
0.225000	0.000000	0.000000	5	0	0	0.000000	0.000000	0.000000	0.000000	0.000000	1.000000	0.000000
0.275000	0.000000	0.000000	6	0	0	0.000000	0.000000	0.000000	0.000000	0.000000	1.000000	0.000000
0.325000	0.000000	0.000000	7	0	0	0.000000	0.000000	0.000000	0.000000	0.000000	1.000000	0.000000
0.375000	0.000000	0.000000	8	0	0	0.000000	0.000000	0.000000	0.000000	0.000000	1.000000	0.000000
0.425000	0.000000	0.000000	9	0	0	0.000000	0.000000	0.000000	0.000000	0.000000	1.000000	0.000000
0.475000	0.000000	0.000000	10	0	0	0.000000	0.000000	0.000000	0.000000	0.000000	1.000000	0.000000
0.525000	0.000000	0.000000	11	0	0	0.000000	0.000000	0.000000	0.000000	0.000000	1.000000	0.000000
0.575000	0.000000	0.000000	12	0	0	0.000000	0.000000	0.000000	0.000000	0.000000	1.000000	0.000000
0.625000	0.000000	0.000000	13	0	0	0.000000	0.000000	0.000000	0.000000	0.000000	1.000000	0.000000
0.675000	0.000000	0.000000	14	0	0	0.000000	0.000000	0.000000	0.000000	0.000000	1.000000	0.000000
0.725000	0.000000	0.000000	15	0	0	0.000000	0.000000	0.000000	0.000000	0.000000	1.000000	0.000000
0.775000	0.000000	0.000000	16	0	0	0.000000	0.000000	0.000000	0.000000	0.000000	1.000000	0.000000
0.825000	0.000000	0.000000	17	0	0	0.000000	0.000000	0.000000	0.000000	0.000000	1.000000	0.000000
0.875000	0.000000	0.000000	18	0	0	0.000000	0.000000	0.000000	0.000000	0.000000	1.000000	0.000000
0.925000	0.000000	0.000000	19	0	0	0.000000	0.000000	0.000000	0.000000	0.000000	1.000000	0.000000
0.975000	0.000000	0.000000	20	0	0	0.000000	0.000000	0.000000	0.000000	0.000000	1.000000	0.000000
1.000000	0.000000	0.000000	21	0	0	0.000000	0.000000	0.000000	0.000000	0.000000	1.000000	0.000000
0.000000	0.025000	0.000000	0	1	0	0.000000	0.000000	0.000000	1.000000	0.000000	1.000000	0.000000
0.025000	0.025000	0.000000	1	1	0	0.000000	0.000000	0.000000	0.828959	0.000000	1.000000	-0.000006
0.075000	0.025000	0.000000	2	1	0	0.000000	0.000000	0.000000	0.553261	0.000000	1.000000	-0.000006
0.125000	0.025000	0.000000	3	1	0	0.000000	0.000000	0.000000	0.384662	0.000000	1.000000	-0.000006
0.175000	0.025000	0.000000	4	1	0	0.000000	0.000000	0.000000	0.292095	0.000000	1.000000	-0.000006
0.225000	0.025000	0.000000	5	1	0	0.000000	0.000000	0.000000	0.241546	0.000000	1.000000	-0.000005
0.275000	0.025000	0.000000	6	1	0	0.000000	0.000000	0.000000	0.212476	0.000000	1.000000	-0.000005
0.325000	0.025000	0.000000	7	1	0	0.000000	0.000000	0.000000	0.194083	0.000000	1.000000	-0.000005
0.375000	0.025000	0.000000	8	1	0	0.000000	0.000000	0.000000	0.180860	0.000000	1.000000	-0.000005
0.425000	0.025000	0.000000	9	1	0	0.000000	0.000000	0.000000	0.169992	0.000000	1.000000	-0.000005
0.475000	0.025000	0.000000	10	1	0	0.000000	0.000000	0.000000	0.160019	0.000000	1.000000	-0.000005
0.525000	0.025000	0.000000	11	1	0	0.000000	0.000000	0.000000	0.150146	0.000000	1.000000	-0.000005
0.575000	0.025000	0.000000	12	1	0	0.000000	0.000000	0.000000	0.139907	0.000000	1.000000	-0.000005
0.625000	0.025000	0.000000	13	1	0	0.000000	0.000000	0.000000	0.129006	0.000000	1.000000	-0.000005
0.675000	0.025000	0.000000	14	1	0	0.000000	0.000000	0.000000	0.117227	0.000000	1.000000	-0.000005
0.725000	0.025000	0.000000	15	1	0	0.000000	0.000000	0.000000	0.104362	0.000000	1.000000	-0.000004
0.775000	0.025000	0.000000	16	1	0	0.000000	0.000000	0.000000	0.090175	0.000000	1.000000	-0.000004
0.825000	0.025000	0.000000	17	1	0	0.000000	0.000000	0.000000	0.074341	0.000000	1.000000	-0.000004
0.875000	0.025000	0.000000	18	1	0	0.000000	0.000000	0.000000	0.056396	0.000000	1.000000	-0.000004
0.925000	0.025000	0.000000	19	1	0	0.000000	0.000000	0.000000	0.035953	0.000000	1.000000	-0.000004
0.975000	0.025000	0.000000	20	1	0	0.000000	0.000000	0.000000	0.012972	0.000000	1.000000	-0.000004
1.000000	0.025000	0.000000	21	1	0	0.000000	0.000000	0.000000	0.000000	0.000000	1.000000	0.000000
0.000000	0.075000	0.000000	0	2	0	0.000000	0.000000	0.000000	1.000000	0.000000	1.000000	0.000000
0.025000	0.075000	0.000000	1	2	0	0.000000	0.000000	0.000000	0.814890	0.000000	1.000000	-0.000006
0.075000	0.075000	0.000000	2	2	0	0.000000	0.000000	0.000000	0.527104	0.000000	1.000000	-0.000006
0.125000	0.075000	0.000000	3	2	0	0.000000	0.000000	0.000000	0.361747	0.000000	1.000000	-0.000006
0.175000	0.075000	0.000000	4	2	0	0.000000	0.000000	0.000000	0.275880	0.000000	1.000000	-0.000006
0.225000	0.075000	0.000000	5	2	0	0.000000	0.000000	0.000000	0.230616	0.000000	1.000000	-0.000005
0.275000	0.075000	0.000000	6	2	0	0.000000	0.000000	0.000000	0.204879	0.000000	1.000000	-0.000005
0.325000	0.075000	0.000000	7	2	0	0.000000	0.000000	0.000000	0.188417	0.000000	1.000000	-0.000005
0.375000	0.075000	0.000000	8	2	0	0.000000	0.000000	0.000000	0.176297	0.000000	1.000000	-0.000005
0.425000	0.075000	0.000000	9	2	0	0.000000	0.000000	0.000000	0.166069	0.000000	1.000000	-0.000005
0.475000	0.075000	0.000000	10	2	0	0.000000	0.000000	0.000000	0.156485	0.000000	1.000000	-0.000005
0.525000	0.075000	0.000000	11	2	0	0.000000	0.000000	0.000000	0.146888	0.000000	1.000000	-0.000005
0.575000	0.075000	0.000000	12	2	0	0.000000	0.000000	0.000000	0.136907	0.000000	1.000000	-0.000005
0.625000	0.075000	0.000000	13	2	0	0.000000	0.000000	0.000000	0.126318	0.000000	1.000000	-0.000005
0.675000	0.075000	0.000000	14	2	0	0.000000	0.000000	0.000000	0.114949	0.000000	1.000000	-0.000005
0.725000	0.075000	0.000000	15	2	0	0.000000	0.000000	0.000000	0.102620	0.000000	1.000000	-0.000004
0.775000	0.075000	0.000000	16	2	0	0.000000	0.000000	0.000000	0.089066	0.000000	1.000000	-0.000004
0.825000	0.075000	0.000000	17	2	0	0.000000	0.000000	0.000000	0.073796	0.000000	1.000000	-0.000004
0.875000	0.075000	0.000000	18	2	0	0.000000	0.000000	0.000000	0.056273	0.000000	1.000000	-0.000004
0.925000	0.075000	0.000000	19	2	0	0.000000	0.000000	0.000000	0.036073	0.000000	1.000000	-0.000004
0.975000	0.075000	0.000000	20	2	0	0.000000	0.000000	0.000000	0.013191	0.000000	1.000000	-0.000004
1.000000	0.075000	0.000000	21	2	0	0.000000	0.000000	0.000000	0.000000	0.000000	1.000000	0.000000
0.000000	0.125000	0.000000	0	3	0	0.000000	0.000000	0.000000	1.000000	0.000000	1.000000	0.000000
0.025000	0.125000	0.000000	1	3	0	0.000000	0.000000	0.000000	0.803980	0.000000	1.000000	-0.000006
0.075000	0.125000	0.000000	2	3	0	0.000000	0.000000	0.000000	0.506070	0.000000	1.000000	-0.000006
0.125000	0.125000	0.000000	3	3	0	0.000000	0.000000	0.000000	0.342036	0.000000	1.000000	-0.000006
0.175000	0.125000	0.000000	4	3	0	0.000000	0.000000	0.000000	0.260762	0.000000	1.000000	-0.000006
0.225000	0.125000	0.000000	5	3	0	0.000000	0.000000	0.000000	0.219631	0.000000	1.000000	-0.000005
0.275000	0.125000	0.000000	6	3	0	0.000000	0.000000	0.000000	0.196784	0.000000	1.000000	-0.000005
0.325000	0.125000	0.000000	7	3	0	0.000000	0.000000	0.000000	0.182182	0.000000	1.000000	-0.000005
0.375000	0.125000	0.000000	8	3	0	0.000000	0.000000	0.000000	0.171266	0.000000	1.000000	-0.000005
0.425000	0.125000	0.000000	9	3	0	0.000000	0.000000	0.000000	0.161875	0.000000	1.000000	-0.000005
0.475000	0.125000	0.000000	10	3	0	0.000000	0.000000	0.000000	0.152954	0.000000	1.000000	-0.000005
0.525000	0.125000	0.000000	11	3	0	0.000000	0.000000	0.000000	0.143969	0.000000	1.000000	-0.000005
0.575000	0.125000	0.000000	12	3	0	0.000000	0.000000	0.000000	0.134626	0.000000	1.000000	-0.000005
0.625000	0.125000	0.000000	13	3	0	0.000000	0.000000	0.000000	0.124736	0.000000	1.000000	-0.000005
0.675000	0.125000	0.000000	14	3	0	0.000000	0.000000	0.000000	0.114131	0.000000	1.000000	-0.000005
0.725000	0.125000	0.000000	15	3	0	0.000000	0.000000	0.000000	0.102604	0.000000	1.000000	-0.000004
0.775000	0.125000	0.000000	16	3	0	0.000000	0.000000	0.000000	0.089718	0.000000	1.000000	-0.000004
0.825000	0.125000	0.000000	17	3	0	0.000000	0.000000	0.000000	0.074871	0.000000	1.000000	-0.000004
0.875000	0.125000	0.000000	18	3	0	0.000000	0.000000	0.000000	0.057458	0.000000	1.000000	-0.000004
0.925000	0.125000	0.000000	19	3	0	0.000000	0.000000	0.000000	0.037033	0.000000	1.000000	-0.000004
0.975000	0.125000	0.000000	20	3	0	0.000000	0.000000	0.000000	0.013618	0.000000	1.000000	-0.000004
1.000000	0.125000	0.000000	21	3	0	0.000000	0.000000	0.000000	0.000000	0.000000	1.000000	0.000000
0.000000	0.175000	0.000000	0	4	0	0.000000	0.000000	0.000000	1.000000	0.000000	1.000000	0.000000
0.025000	0.175000	0.000000	1	4	0	0.000000	0.000000	0.000000	0.797618	0.000000	1.000000	-0.000006
0.075000	0.175000	0.000000	2	4	0	0.000000	0.000000	0.000000	0.493442	0.000000	1.000000	-0.000006
0.125000	0.175000	0.000000	3	4	0	0.000000	0.000000	0.000000	0.329526	0.000000	1.000000	-0.000006
0.175000	0.175000	0.000000	4	4	0	0.000000	0.000000	0.000000	0.250517	0.000000	1.000000	-0.000006
0.225000	0.175000	0.000000	5	4	0	0.000000	0.000000	0.000000	0.211720	0.000000	1.000000	-0.000005
0.275000	0.175000	0.000000	6	4	0	0.000000	0.000000	0.000000	0.190686	0.000000	1.000000	-0.000005
0.325000	0.175000	0.000000	7	4	0	0.000000	0.000000	0.000000	0.177392	0.000000	1.000000	-0.000005
0.375000	0.175000	0.000000	8	4	0	0.000000	0.000000	0.000000	0.167441	0.000000	1.000000	-0.000005
0.425000	0.175000	0.000000	9	4	0	0.000000	0.000000	0.000000	0.158831	0.000000	1.000000	-0.000005
0.475000	0.175000	0.000000	10	4	0	0.000000	0.000000	0.000000	0.150608	0.000000	1.000000	-0.000005
0.525000	0.175000	0.000000	11	4	0	0.000000	0.000000	0.000000	0.142297	0.000000	1.000000	-0.000005
0.575000	0.175000	0.000000	12	4	0	0.000000	0.000000	0.000000	0.133632	0.000000	1.000000	-0.000005
0.625000	0.175000	0.000000	13	4	0	0.000000	0.000000	0.000000	0.124417	0.000000	1.000000	-0.000005
0.675000	0.175000	0.000000	14	4	0	0.000000	0.000000	0.000000	0.114457	0.000000	1.000000	-0.000005
0.725000	0.175000	0.000000	15	4	0	0.000000	0.000000	0.000000	0.103497	0.000000	1.000000	-0.000004
0.775000	0.175000	0.000000	16	4	0	0.000000	0.000000	0.000000	0.091002	0.000000	1.000000	-0.000004
0.825000	0.175000	0.000000	17	4	0	0.000000	0.000000	0.000000	0.076326	0.000000	1.000000	-0.000004
0.875000	0.175000	0.000000	18	4	0	0.000000	0.000000	0.000000	0.058834	0.000000	1.000000	-0.000004
0.925000	0.175000	0.000000	19	4	0	0.000000	0.000000	0.000000	0.038057	0.000000	1.000000	-0.000004
0.975000	0.175000	0.000000	20	4	0	0.000000	0.000000	0.000000	0.014025	0.000000	1.000000	-0.000004
1.000000	0.175000	0.000000	21	4	0	0.000000	0.000000	0.000000	0.000000	0.000000	1.000000	0.000000
0.000000	0.225000	0.000000	0	5	0	0.000000	0.000000	0.000000	1.000000	0.000000	1.000000	0.000000
0.025000	0.225000	0.000000	1	5	0	0.000000	0.000000	0.000000	0.794372	0.000000	1.000000	-0.000006
0.075000	0.225000	0.000000	2	5	0	0.000000	0.000000	0.000000	0.486797	0.000000	1.000000	-0.000006
0.125000	0.225000	0.000000	3	5	0	0.000000	0.000000	0.000000	0.322588	0.000000	1.000000	-0.000006
0.175000	0.225000	0.000000	4	5	0	0.000000	0.000000	0.000000	0.244498	0.000000	1.000000	-0.000005
0.225000	0.225000	0.000000	5	5	0	0.000000	0.000000	0.000000	0.206818	0.000000	1.000000	-0.000005
0.275000	0.225000	0.000000	6	5	0	0.000000	0.000000	0.000000	0.186761	0.000000	1.000000	-0.000005
0.325000	0.225000	0.000000	7	5	0	0.000000	0.000000	0.000000	0.174262	0.000000	1.000000	-0.000005
0.375000	0.225000	0.000000	8	5	0	0.000000	0.000000	0.000000	0.164969	0.000000	1.000000	-0.000005
0.425000	0.225000	0.000000	9	5	0	0.000000	0.000000	0.000000	0.156941	0.000000	1.000000	-0.000005
0.475000	0.225000	0.000000	10	5	0	0.000000	0.000000	0.000000	0.149254	0.000000	1.000000	-0.000005
0.525000	0.225000	0.000000	11	5	0	0.000000	0.000000	0.000000	0.141448	0.000000	1.000000	-0.000005
0.575000	0.225000	0.000000	12	5	0	0.000000	0.000000	0.000000	0.133251	0.000000	1.000000	-0.000005
0.625000	0.225000	0.000000	13	5	0	0.000000	0.000000	0.000000	0.124452	0.000000	1.000000	-0.000005
0.675000	0.225000	0.000000	14	5	0	0.000000	0.000000	0.000000	0.114834	0.000000	1.000000	-0.000005
0.725000	0.225000	0.000000	15	5	0	0.000000	0.000000	0.000000	0.104127	0.000000	1.000000	-0.000004
0.775000	0.225000	0.000000	16	5	0	0.000000	0.000000	0.000000	0.091790	0.000000	1.000000	-0.000004
0.825000	0.225000	0.000000	17	5	0	0.000000	0.000000	0.000000	0.077168	0.000000	1.000000	-0.000004
0.875000	0.225000	0.000000	18	5	0	0.000000	0.000000	0.000000	0.059617	0.000000	1.000000	-0.000004
0.925000	0.225000	0.000000	19	5	0	0.000000	0.000000	0.000000	0.038646	0.000000	1.000000	-0.000004
0.975000	0.225000	0.000000	20	5	0	0.000000	0.000000	0.000000	0.014264	0.000000	1.000000	-0.000004
1.000000	0.225000	0.000000	21	5	0	0.000000	0.000000	0.000000	0.000000	0.000000	1.000000	0.000000
0.000000	0.275000	0.000000	0	6	0	0.000000	0.000000	0.000000	1.000000	0.000000	1.000000	0.000000
0.025000	0.275000	0.000000	1	6	0	0.000000	0.000000	0.000000	0.792927	0.000000	1.000000	-0.000006
0.075000	0.275000	0.000000	2	6	0	0.000000	0.000000	0.000000	0.483699	0.000000	1.000000	-0.000006
0.125000	0.275000	0.000000	3	6	0	0.000000	0.000000	0.000000	0.319130	0.000000	1.000000	-0.000006
0.175000	0.275000	0.000000	4	6	0	0.000000	0.000000	0.000000	0.241285	0.000000	1.000000	-0.000005
0.225000	0.275000	0.000000	5	6	0	0.000000	0.000000	0.000000	0.204040	0.000000	1.000000	-0.000005
0.275000	0.275000	0.000000	6	6	0	0.000000	0.000000	0.000000	0.184435	0.000000	1.000000	-0.000005
0.325000	0.275000	0.000000	7	6	0	0.000000	0.000000	0.000000	0.172355	0.000000	1.000000	-0.000005
0.375000	0.275000	0.000000	8	6	0	0.000000	0.000000	0.000000	0.163442	0.000000	1.000000	-0.000005
0.425000	0.275000	0.000000	9	6	0	0.000000	0.000000	0.000000	0.155762	0.000000	1.000000	-0.000005
0.475000	0.275000	0.000000	10	6	0	0.000000	0.000000	0.000000	0.148390	0.000000	1.000000	-0.000005
0.525000	0.275000	0.000000	11	6	0	0.000000	0.000000	0.000000	0.140860	0.000000	1.000000	-0.000005
0.575000	0.275000	0.000000	12	6	0	0.000000	0.000000	0.000000	0.132890	0.000000	1.000000	-0.000005
0.625000	0.275000	0.000000	13	6	0	0.000000	0.000000	0.000000	0.124262	0.000000	1.000000	-0.000005
0.675000	0.275000	0.000000	14	6	0	0.000000	0.000000	0.000000	0.114756	0.000000	1.000000	-0.000005
0.725000	0.275000	0.000000	15	6	0	0.000000	0.000000	0.000000	0.104111	0.000000	1.000000	-0.000004
0.775000	0.275000	0.000000	16	6	0	0.000000	0.000000	0.000000	0.091828	0.000000	1.000000	-0.000004
0.825000	0.275000	0.000000	17	6	0	0.000000	0.000000	0.000000	0.077252	0.000000	1.000000	-0.000004
0.875000	0.275000	0.000000	18	6	0	0.000000	0.000000	0.000000	0.059737	0.000000	1.000000	-0.000004
0.925000	0.275000	0.000000	19	6	0	0.000000	0.000000	0.000000	0.038771	0.000000	1.000000	-0.000004
0.975000	0.275000	0.000000	20	6	0	0.000000	0.000000	0.000000	0.014332	0.000000	1.000000	-0.000004
1.000000	0.275000	0.000000	21	6	0	0.000000	0.000000	0.000000	0.000000	0.000000	1.000000	0.000000
0.000000	0.325000	0.000000	0	7	0	0.000000	0.000000	0.000000	1.000000	0.000000	1.000000	0.000000
0.025000	0.325000	0.000000	1	7	0	0.000000	0.000000	0.000000	0.792424	0.000000	1.000000	-0.000006
0.075000	0.325000	0.000000	2	7	0	0.000000	0.000000	0.000000	0.482498	0.000000	1.000000	-0.000006
0.125000	0.325000	0.000000	3	7	0	0.000000	0.000000	0.000000	0.317614	0.000000	1.000000	-0.000006
0.175000	0.325000	0.000000	4	7	0	0.000000	0.000000	0.000000	0.239712	0.000000	1.000000	-0.000005
0.225000	0.325000	0.000000	5	7	0	0.000000	0.000000	0.000000	0.202553	0.000000	1.000000	-0.000005
0.275000	0.325000	0.000000	6	7	0	0.000000	0.000000	0.000000	0.183102	0.000000	1.000000	-0.000005
0.325000	0.325000	0.000000	7	7	0	0.000000	0.000000	0.000000	0.171197	0.000000	1.000000	-0.000005
0.375000	0.325000	0.000000	8	7	0	0.000000	0.000000	0.000000	0.162457	0.000000	1.000000	-0.000005
0.425000	0.325000	0.000000	9	7	0	0.000000	0.000000	0.000000	0.154936	0.000000	1.000000	-0.000005
0.475000	0.325000	0.000000	10	7	0	0.000000	0.000000	0.000000	0.147699	0.000000	1.000000	-0.000005
0.525000	0.325000	0.000000	11	7	0	0.000000	0.000000	0.000000	0.140270	0.000000	1.000000	-0.000005
0.575000	0.325000	0.000000	12	7	0	0.000000	0.000000	0.000000	0.132367	0.000000	1.000000	-0.000005
0.625000	0.325000	0.000000	13	7	0	0.000000	0.000000	0.000000	0.123771	0.000000	1.000000	-0.000005
0.675000	0.325000	0.000000	14	7	0	0.000000	0.000000	0.000000	0.114271	0.000000	1.000000	-0.000005
0.725000	0.325000	0.000000	15	7	0	0.000000	0.000000	0.000000	0.103619	0.000000	1.000000	-0.000004
0.775000	0.325000	0.000000	16	7	0	0.000000	0.000000	0.000000	0.091370	0.000000	1.000000	-0.000004
0.825000	0.325000	0.000000	17	7	0	0.000000	0.000000	0.000000	0.076868	0.000000	1.000000	-0.000004
0.875000	0.325000	0.000000	18	7	0	0.000000	0.000000	0.000000	0.059461	0.000000	1.000000	-0.000004
0.925000	0.325000	0.000000	19	7	0	0.000000	0.000000	0.000000	0.038619	0.000000	1.000000	-0.000004
0.975000	0.325000	0.000000	20	7	0	0.000000	0.000000	0.000000	0.014294	0.000000	1.000000	-0.000004
1.000000	0.325000	0.000000	21	7	0	0.000000	0.000000	0.000000	0.000000	0.000000	1.000000	0.000000
0.000000	0.375000	0.000000	0	8	0	0.000000	0.000000	0.000000	1.000000	0.000000	1.000000	0.000000
0.025000	0.375000	0.000000	1	8	0	0.000000	0.000000	0.000000	0.792350	0.000000	1.000000	-0.000006
0.075000	0.375000	0.000000	2	8	0	0.000000	0.000000	0.000000	0.482196	0.000000	1.000000	-0.000006
0.125000	0.375000	0.000000	3	8	0	0.000000	0.000000	0.000000	0.317072	0.000000	1.000000	-0.000006
0.175000	0.375000	0.000000	4	8	0	0.000000	0.000000	0.000000	0.239010	0.000000	1.000000	-0.000005
0.225000	0.375000	0.000000	5	8	0	0.000000	0.000000	0.000000	0.201789	0.000000	1.000000	-0.000005
0.275000	0.375000	0.000000	6	8	0	0.000000	0.000000	0.000000	0.182343	0.000000	1.000000	-0.000005
0.325000	0.375000	0.000000	7	8	0	0.000000	0.000000	0.000000	0.170477	0.000000	1.000000	-0.000005
0.375000	0.375000	0.000000	8	8	0	0.000000	0.000000	0.000000	0.161785	0.000000	1.000000	-0.000005
0.425000	0.375000	0.000000	9	8	0	0.000000	0.000000	0.000000	0.154307	0.000000	1.000000	-0.000005
0.475000	0.375000	0.000000	10	8	0	0.000000	0.000000	0.000000	0.147097	0.000000	1.000000	-0.000005
0.525000	0.375000	0.000000	11	8	0	0.000000	0.000000	0.000000	0.139677	0.000000	1.000000	-0.000005
0.575000	0.375000	0.000000	12	8	0	0.000000	0.000000	0.000000	0.131765	0.000000	1.000000	-0.000005
0.625000	0.375000	0.000000	13	8	0	0.000000	0.000000	0.000000	0.123149	0.000000	1.000000	-0.000005
0.675000	0.375000	0.000000	14	8	0	0.000000	0.000000	0.000000	0.113629	0.000000	1.000000	-0.000005
0.725000	0.375000	0.000000	15	8	0	0.000000	0.000000	0.000000	0.102967	0.000000	1.000000	-0.000004
0.775000	0.375000	0.000000	16	8	0	0.000000	0.000000	0.000000	0.090760	0.000000	1.000000	-0.000004
0.825000	0.375000	0.000000	17	8	0	0.000000	0.000000	0.000000	0.076346	0.000000	1.000000	-0.000004
0.875000	0.375000	0.000000	18	8	0	0.000000	0.000000	0.000000	0.059067	0.000000	1.000000	-0.000004
0.925000	0.375000	0.000000	19	8	0	0.000000	0.000000	0.000000	0.038380	0.000000	1.000000	-0.000004
0.975000	0.375000	0.000000	20	8	0	0.000000	0.000000	0.000000	0.014219	0.000000	1.000000	-0.000004
1.000000	0.375000	0.000000	21	8	0	0.000000	0.000000	0.000000	0.000000	0.000000	1.000000	0.000000
0.000000	0.425000	0.000000	0	9	0	0.000000	0.000000	0.000000	1.000000	0.000000	1.000000	0.000000
0.025000	0.425000	0.000000	1	9	0	0.000000	0.000000	0.000000	0.792420	0.000000	1.000000	-0.000006
0.075000	0.425000	0.000000	2	9	0	0.000000	0.000000	0.000000	0.482232	0.000000	1.000000	-0.000006
0.125000	0.425000	0.000000	3	9	0	0.000000	0.000000	0.000000	0.316947	0.000000	1.000000	-0.000006
0.175000	0.425000	0.000000	4	9	0	0.000000	0.000000	0.000000	0.238731	0.000000	1.000000	-0.000005
0.225000	0.425000	0.000000	5	9	0	0.000000	0.000000	0.000000	0.201415	0.000000	1.000000	-0.000005
0.275000	0.425000	0.000000	6	9	0	0.000000	0.000000	0.000000	0.181925	0.000000	1.000000	-0.000005
0.325000	0.425000	0.000000	7	9	0	0.000000	0.000000	0.000000	0.170042	0.000000	1.000000	-0.000005
0.375000	0.425000	0.000000	8	9	0	0.000000	0.000000	0.000000	0.161343	0.000000	1.000000	-0.000005
0.425000	0.425000	0.000000	9	9	0	0.000000	0.000000	0.000000	0.153857	0.000000	1.000000	-0.000005
0.475000	0.425000	0.000000	10	9	0	0.000000	0.000000	0.000000	0.146632	0.000000	1.000000	-0.000005
0.525000	0.425000	0.000000	11	9	0	0.000000	0.000000	0.000000	0.139189	0.000000	1.000000	-0.000005
0.575000	0.425000	0.000000	12	9	0	0.000000	0.000000	0.000000	0.131250	0.000000	1.000000	-0.000005
0.625000	0.425000	0.000000	13	9	0	0.000000	0.000000	0.000000	0.122610	0.000000	1.000000	-0.000005
0.675000	0.425000	0.000000	14	9	0	0.000000	0.000000	0.000000	0.113075	0.000000	1.000000	-0.000005
0.725000	0.425000	0.000000	15	9	0	0.000000	0.000000	0.000000	0.102416	0.000000	1.000000	-0.000004
0.775000	0.425000	0.000000	16	9	0	0.000000	0.000000	0.000000	0.090249	0.000000	1.000000	-0.000004
0.825000	0.425000	0.000000	17	9	0	0.000000	0.000000	0.000000	0.075912	0.000000	1.000000	-0.000004
0.875000	0.425000	0.000000	18	9	0	0.000000	0.000000	0.000000	0.058739	0.000000	1.000000	-0.000004
0.925000	0.425000	0.000000	19	9	0	0.000000	0.000000	0.000000	0.038177	0.000000	1.000000	-0.000004
0.975000	0.425000	0.000000	20	9	0	0.000000	0.000000	0.000000	0.014152	0.000000	1.000000	-0.000004
1.000000	0.425000	0.000000	21	9	0	0.000000	0.000000	0.000000	0.000000	0.000000	1.000000	0.000000
0.000000	0.475000	0.000000	0	10	0	0.000000	0.000000	0.000000	1.000000	0.000000	1.000000	0.000000
0.025000	0.475000	0.000000	1	10	0	0.000000	0.000000	0.000000	0.792486	0.000000	1.000000	-0.000006
0.075000	0.475000	0.000000	2	10	0	0.000000	0.000000	0.000000	0.482312	0.000000	1.000000	-0.000006
0.125000	0.475000	0.000000	3	10	0	0.000000	0.000000	0.000000	0.316946	0.000000	1.000000	-0.000006
0.175000	0.475000	0.000000	4	10	0	0.000000	0.000000	0.000000	0.238641	0.000000	1.000000	-0.000005
0.225000	0.475000	0.000000	5	10	0	0.000000	0.000000	0.000000	0.201263	0.000000	1.000000	-0.000005
0.275000	0.475000	0.000000	6	10	0	0.000000	0.000000	0.000000	0.181736	0.000000	1.000000	-0.000005
0.325000	0.475000	0.000000	7	10	0	0.000000	0.000000	0.000000	0.169833	0.000000	1.000000	-0.000005
0.375000	0.475000	0.000000	8	10	0	0.000000	0.000000	0.000000	0.161119	0.000000	1.000000	-0.000005
0.425000	0.475000	0.000000	9	10	0	0.000000	0.000000	0.000000	0.153618	0.000000	1.000000	-0.000005
0.475000	0.475000	0.000000	10	10	0	0.000000	0.000000	0.000000	0.146377	0.000000	1.000000	-0.000005
0.525000	0.475000	0.000000	11	10	0	0.000000	0.000000	0.000000	0.138915	0.000000	1.000000	-0.000005
0.575000	0.475000	0.000000	12	10	0	0.000000	0.000000	0.000000	0.130958	0.000000	1.000000	-0.000005
0.625000	0.475000	0.000000	13	10	0	0.000000	0.000000	0.000000	0.122304	0.000000	1.000000	-0.000005
0.675000	0.475000	0.000000	14	10	0	0.000000	0.000000	0.000000	0.112764	0.000000	1.000000	-0.000005
0.725000	0.475000	0.000000	15	10	0	0.000000	0.000000	0.000000	0.102110	0.000000	1.000000	-0.000004
0.775000	0.475000	0.000000	16	10	0	0.000000	0.000000	0.000000	0.089970	0.000000	1.000000	-0.000004
0.825000	0.475000	0.000000	17	10	0	0.000000	0.000000	0.000000	0.075676	0.000000	1.000000	-0.000004
0.875000	0.475000	0.000000	18	10	0	0.000000	0.000000	0.000000	0.058560	0.000000	1.000000	-0.000004
0.925000	0.475000	0.000000	19	10	0	0.000000	0.000000	0.000000	0.038067	0.000000	1.000000	-0.000004
0.975000	0.475000	0.000000	20	10	0	0.000000	0.000000	0.000000	0.014114	0.000000	1.000000	-0.000004
1.000000	0.475000	0.000000	21	10	0	0.000000	0.000000	0.000000	0.000000	0.000000	1.000000	0.000000
0.000000	0.525000	0.000000	0	11	0	0.000000	0.000000	0.000000	1.000000	0.000000	1.000000	0.000000
0.025000	0.525000	0.000000	1	11	0	0.000000	0.000000	0.000000	0.792487	0.000000	1.000000	-0.000006
0.075000	0.525000	0.000000	2	11	0	0.000000	0.000000	0.000000	0.482313	0.000000	1.000000	-0.000006
0.125000	0.525000	0.000000	3	11	0	0.000000	0.000000	0.000000	0.316948	0.000000	1.000000	-0.000006
0.175000	0.525000	0.000000	4	11	0	0.000000	0.000000	0.000000	0.238642	0.000000	1.000000	-0.000005
0.225000	0.525000	0.000000	5	11	0	0.000000	0.000000	0.000000	0.201264	0.000000	1.000000	-0.000005
0.275000	0.525000	0.000000	6	11	0	0.000000	0.000000	0.000000	0.181737	0.000000	1.000000	-0.000005
0.325000	0.525000	0.000000	7	11	0	0.000000	0.000000	0.000000	0.169834	0.000000	1.000000	-0.000005
0.375000	0.525000	0.000000	8	11	0	0.000000	0.000000	0.000000	0.161119	0.000000	1.000000	-0.000005
0.425000	0.525000	0.000000	9	11	0	0.000000	0.000000	0.000000	0.153619	0.000000	1.000000	-0.000005
0.475000	0.525000	0.000000	10	11	0	0.000000	0.000000	0.000000	0.146377	0.000000	1.000000	-0.000005
0.525000	0.525000	0.000000	11	11	0	0.000000	0.000000	0.000000	0.138916	0.000000	1.000000	-0.000005
0.575000	0.525000	0.000000	12	11	0	0.000000	0.000000	0.000000	0.130958	0.000000	1.000000	-0.000005
0.625000	0.525000	0.000000	13	11	0	0.000000	0.000000	0.000000	0.122305	0.000000	1.000000	-0.000005
0.675000	0.525000	0.000000	14	11	0	0.000000	0.000000	0.000000	0.112765	0.000000	1.000000	-0.000005
0.725000	0.525000	0.000000	15	11	0	0.000000	0.000000	0.000000	0.102111	0.000000	1.000000	-0.000004
0.775000	0.525000	0.000000	16	11	0	0.000000	0.000000	0.000000	0.089970	0.000000	1.000000	-0.000004
0.825000	0.525000	0.000000	17	11	0	0.000000	0.000000	0.000000	0.075676	0.000000	1.000000	-0.000004
0.875000	0.525000	0.000000	18	11	0	0.000000	0.000000	0.000000	0.058561	0.000000	1.000000	-0.000004
0.925000	0.525000	0.000000	19	11	0	0.000000	0.000000	0.000000	0.038067	0.000000	1.000000	-0.000004
0.975000	0.525000	0.000000	20	11	0	0.000000	0.000000	0.000000	0.014114	0.000000	1.000000	-0.000004
1.000000	0.525000	0.000000	21	11	0	0.000000	0.000000	0.000000	0.000000	0.000000	1.000000	0.000000
0.000000	0.575000	0.000000	0	12	0	0.000000	0.000000	0.000000	1.000000	0.000000	1.000000	0.000000
0.025000	0.575000	0.000000	1	12	0	0.000000	0.000000	0.000000	0.792422	0.000000	1.000000	-0.000006
0.075000	0.575000	0.000000	2	12	0	0.000000	0.000000	0.000000	0.482235	0.000000	1.000000	-0.000006
0.125000	0.575000	0.000000	3	12	0	0.000000	0.000000	0.000000	0.316951	0.000000	1.000000	-0.000006
0.175000	0.575000	0.000000	4	12	0	0.000000	0.000000	0.000000	0.238735	0.000000	1.000000	-0.000005
0.225000	0.575000	0.000000	5	12	0	0.000000	0.000000	0.000000	0.201418	0.000000	1.000000	-0.000005
0.275000	0.575000	0.000000	6	12	0	0.000000	0.000000	0.000000	0.181927	0.000000	1.000000	-0.000005
0.325000	0.575000	0.000000	7	12	0	0.000000	0.000000	0.000000	0.170045	0.000000	1.000000	-0.000005
0.375000	0.575000	0.000000	8	12	0	0.000000	0.000000	0.000000	0.161345	0.000000	1.000000	-0.000005
0.425000	0.575000	0.000000	9	12	0	0.000000	0.000000	0.000000	0.153859	0.000000	1.000000	-0.000005
0.475000	0.575000	0.000000	10	12	0	0.000000	0.000000	0.000000	0.146634	0.000000	1.000000	-0.000005
0.525000	0.575000	0.000000	11	12	0	0.000000	0.000000	0.000000	0.139191	0.000000	1.000000	-0.000005
0.575000	0.575000	0.000000	12	12	0	0.000000	0.000000	0.000000	0.131251	0.000000	1.000000	-0.000005
0.625000	0.575000	0.000000	13	12	0	0.000000	0.000000	0.000000	0.122611	0.000000	1.000000	-0.000005
0.675000	0.575000	0.000000	14	12	0	0.000000	0.000000	0.000000	0.113076	0.000000	1.000000	-0.000005
0.725000	0.575000	0.000000	15	12	0	0.000000	0.000000	0.000000	0.102417	0.000000	1.000000	-0.000004
0.775000	0.575000	0.000000	16	12	0	0.000000	0.000000	0.000000	0.090250	0.000000	1.000000	-0.000004
0.825000	0.575000	0.000000	17	12	0	0.000000	0.000000	0.000000	0.075913	0.000000	1.000000	-0.000004
0.875000	0.575000	0.000000	18	12	0	0.000000	0.000000	0.000000	0.058739	0.000000	1.000000	-0.000004
0.925000	0.575000	0.000000	19	12	0	0.000000	0.000000	0.000000	0.038178	0.000000	1.000000	-0.000004
0.975000	0.575000	0.000000	20	12	0	0.000000	0.000000	0.000000	0.014152	0.000000	1.000000	-0.000004
1.000000	0.575000	0.000000	21	12	0	0.000000	0.000000	0.000000	0.000000	0.000000	1.000000	0.000000
0.000000	0.625000	0.000000	0	13	0	0.000000	0.000000	0.000000	1.000000	0.000000	1.000000	0.000000
0.025000	0.625000	0.000000	1	13	0	0.000000	0.000000	0.000000	0.792354	0.000000	1.000000	-0.000006
0.075000	0.625000	0.000000	2	13	0	0.000000	0.000000	0.000000	0.482204	0.000000	1.000000	-0.000006
0.125000	0.625000	0.000000	3	13	0	0.000000	0.000000	0.000000	0.317080	0.000000	1.000000	-0.000006
0.175000	0.625000	0.000000	4	13	0	0.000000	0.000000	0.000000	0.239017	0.000000	1.000000	-0.000005
0.225000	0.625000	0.000000	5	13	0	0.000000	0.000000	0.000000	0.201795	0.000000	1.000000	-0.000005
0.275000	0.625000	0.000000	6	13	0	0.000000	0.000000	0.000000	0.182348	0.000000	1.000000	-0.000005
0.325000	0.625000	0.000000	7	13	0	0.000000	0.000000	0.000000	0.170482	0.000000	1.000000	-0.000005
0.375000	0.625000	0.000000	8	13	0	0.000000	0.000000	0.000000	0.161790	0.000000	1.000000	-0.000005
0.425000	0.625000	0.000000	9	13	0	0.000000	0.000000	0.000000	0.154311	0.000000	1.000000	-0.000005
0.475000	0.625000	0.000000	10	13	0	0.000000	0.000000	0.000000	0.147101	0.000000	1.000000	-0.000005
0.525000	0.625000	0.000000	11	13	0	0.000000	0.000000	0.000000	0.139680	0.000000	1.000000	-0.000005
0.575000	0.625000	0.000000	12	13	0	0.000000	0.000000	0.000000	0.131767	0.000000	1.000000	-0.000005
0.625000	0.625000	0.000000	13	13	0	0.000000	0.000000	0.000000	0.123152	0.000000	1.000000	-0.000005
0.675000	0.625000	0.000000	14	13	0	0.000000	0.000000	0.000000	0.113631	0.000000	1.000000	-0.000005
0.725000	0.625000	0.000000	15	13	0	0.000000	0.000000	0.000000	0.102969	0.000000	1.000000	-0.000004
0.775000	0.625000	0.000000	16	13	0	0.000000	0.000000	0.000000	0.090761	0.000000	1.000000	-0.000004
0.825000	0.625000	0.000000	17	13	0	0.000000	0.000000	0.000000	0.076347	0.000000	1.000000	-0.000004
0.875000	0.625000	0.000000	18	13	0	0.000000	0.000000	0.000000	0.059068	0.000000	1.000000	-0.000004