TITLE = "dt=0.100000s, t=310.000000s, nu=0.000016, Lx=1.000000, Ly=1.000000, Lz=1.000000, Nx=32, Ny=32, Nz=32 "
VARIABLES =X, Y, Z, I, J, K, U, V, W, T, Xi, FlagP, P 
ZONE F=POINT, I=32, J=32, K=32
0.000000	0.000000	0.000000	0	0	0	0.000000	0.000000	0.000000	19.912846	0.000000	1.000000	0.000000
0.016666	0.000000	0.000000	1	0	0	0.000000	0.000000	0.000000	19.904352	0.000000	1.000000	0.000000
0.049999	0.000000	0.000000	2	0	0	0.000000	0.000000	0.000000	19.904352	0.000000	1.000000	0.000000
0.083332	0.000000	0.000000	3	0	0	0.000000	0.000000	0.000000	19.904352	0.000000	1.000000	0.000000
0.116665	0.000000	0.000000	4	0	0	0.000000	0.000000	0.000000	19.904352	0.000000	1.000000	0.000000
0.149999	0.000000	0.000000	5	0	0	0.000000	0.000000	0.000000	19.904352	0.000000	1.000000	0.000000
0.183332	0.000000	0.000000	6	0	0	0.000000	0.000000	0.000000	19.904352	0.000000	1.000000	0.000000
0.216665	0.000000	0.000000	7	0	0	0.000000	0.000000	0.000000	19.904352	0.000000	1.000000	0.000000
0.249997	0.000000	0.000000	8	0	0	0.000000	0.000000	0.000000	19.904352	0.000000	1.000000	0.000000
0.283331	0.000000	0.000000	9	0	0	0.000000	0.000000	0.000000	19.904352	0.000000	1.000000	0.000000
0.316664	0.000000	0.000000	10	0	0	0.000000	0.000000	0.000000	19.904352	0.000000	1.000000	0.000000
0.349997	0.000000	0.000000	11	0	0	0.000000	0.000000	0.000000	19.904352	0.000000	1.000000	0.000000
0.383330	0.000000	0.000000	12	0	0	0.000000	0.000000	0.000000	19.904352	0.000000	1.000000	0.000000
0.416663	0.000000	0.000000	13	0	0	0.000000	0.000000	0.000000	19.904352	0.000000	1.000000	0.000000
0.449996	0.000000	0.000000	14	0	0	0.000000	0.000000	0.000000	19.904352	0.000000	1.000000	0.000000
0.483329	0.000000	0.000000	15	0	0	0.000000	0.000000	0.000000	19.904352	0.000000	1.000000	0.000000
0.516662	0.000000	0.000000	16	0	0	0.000000	0.000000	0.000000	19.904352	0.000000	1.000000	0.000000
0.549994	0.000000	0.000000	17	0	0	0.000000	0.000000	0.000000	19.904352	0.000000	1.000000	0.000000
0.583328	0.000000	0.000000	18	0	0	0.000000	0.000000	0.000000	19.904352	0.000000	1.000000	0.000000
0.616660	0.000000	0.000000	19	0	0	0.000000	0.000000	0.000000	19.904352	0.000000	1.000000	0.000000
0.649994	0.000000	0.000000	20	0	0	0.000000	0.000000	0.000000	19.904352	0.000000	1.000000	0.000000
0.683326	0.000000	0.000000	21	0	0	0.000000	0.000000	0.000000	19.904352	0.000000	1.000000	0.000000
0.716660	0.000000	0.000000	22	0	0	0.000000	0.000000	0.000000	19.904352	0.000000	1.000000	0.000000
0.749992	0.000000	0.000000	23	0	0	0.000000	0.000000	0.000000	19.904352	0.000000	1.000000	0.000000
0.783326	0.000000	0.000000	24	0	0	0.000000	0.000000	0.000000	19.904352	0.000000	1.000000	0.000000
0.816658	0.000000	0.000000	25	0	0	0.000000	0.000000	0.000000	19.904352	0.000000	1.000000	0.000000
0.849992	0.000000	0.000000	26	0	0	0.000000	0.000000	0.000000	19.904352	0.000000	1.000000	0.000000
0.883325	0.000000	0.000000	27	0	0	0.000000	0.000000	0.000000	19.904352	0.000000	1.000000	0.000000
0.916658	0.000000	0.000000	28	0	0	0.000000	0.000000	0.000000	19.904352	0.000000	1.000000	0.000000
0.949991	0.000000	0.000000	29	0	0	0.000000	0.000000	0.000000	19.904352	0.000000	1.000000	0.000000
0.983329	0.000000	0.000000	30	0	0	0.000000	0.000000	0.000000	19.904352	0.000000	1.000000	0.000000
1.000000	0.000000	0.000000	31	0	0	0.000000	0.000000	0.000000	19.912846	0.000000	1.000000	0.000000
0.000000	0.016666	0.000000	0	1	0	0.000000	0.000000	0.000000	19.929834	0.000000	1.000000	0.000000
0.016666	0.016666	0.000000	1	1	0	0.000000	0.000000	0.000000	19.929834	0.000000	1.000000	-0.279219
0.049999	0.016666	0.000000	2	1	0	0.000000	0.000000	0.000000	19.929834	0.000000	1.000000	-0.279866
0.083332	0.016666	0.000000	3	1	0	0.000000	0.000000	0.000000	19.929834	0.000000	1.000000	-0.283514
0.116665	0.016666	0.000000	4	1	0	0.000000	0.000000	0.000000	19.929834	0.000000	1.000000	-0.285015
0.149999	0.016666	0.000000	5	1	0	0.000000	0.000000	0.000000	19.929834	0.000000	1.000000	-0.285559
0.183332	0.016666	0.000000	6	1	0	0.000000	0.000000	0.000000	19.929834	0.000000	1.000000	-0.285787
0.216665	0.016666	0.000000	7	1	0	0.000000	0.000000	0.000000	19.929834	0.000000	1.000000	-0.285967
0.249997	0.016666	0.000000	8	1	0	0.000000	0.000000	0.000000	19.929834	0.000000	1.000000	-0.286177
0.283331	0.016666	0.000000	9	1	0	0.000000	0.000000	0.000000	19.929834	0.000000	1.000000	-0.286423
0.316664	0.016666	0.000000	10	1	0	0.000000	0.000000	0.000000	19.929834	0.000000	1.000000	-0.286678
0.349997	0.016666	0.000000	11	1	0	0.000000	0.000000	0.000000	19.929834	0.000000	1.000000	-0.286913
0.383330	0.016666	0.000000	12	1	0	0.000000	0.000000	0.000000	19.929834	0.000000	1.000000	-0.287106
0.416663	0.016666	0.000000	13	1	0	0.000000	0.000000	0.000000	19.929834	0.000000	1.000000	-0.287246
0.449996	0.016666	0.000000	14	1	0	0.000000	0.000000	0.000000	19.929834	0.000000	1.000000	-0.287325
0.483329	0.016666	0.000000	15	1	0	0.000000	0.000000	0.000000	19.929834	0.000000	1.000000	-0.287334
0.516662	0.016666	0.000000	16	1	0	0.000000	0.000000	0.000000	19.929834	0.000000	1.000000	-0.287248
0.549994	0.016666	0.000000	17	1	0	0.000000	0.000000	0.000000	19.929834	0.000000	1.000000	-0.287032
0.583328	0.016666	0.000000	18	1	0	0.000000	0.000000	0.000000	19.929834	0.000000	1.000000	-0.286654
0.616660	0.016666	0.000000	19	1	0	0.000000	0.000000	0.000000	19.929834	0.000000	1.000000	-0.286124
0.649994	0.016666	0.000000	20	1	0	0.000000	0.000000	0.000000	19.929834	0.000000	1.000000	-0.285536
0.683326	0.016666	0.000000	21	1	0	0.000000	0.000000	0.000000	19.929834	0.000000	1.000000	-0.285045
0.716660	0.016666	0.000000	22	1	0	0.000000	0.000000	0.000000	19.929834	0.000000	1.000000	-0.284792
0.749992	0.016666	0.000000	23	1	0	0.000000	0.000000	0.000000	19.929834	0.000000	1.000000	-0.284793
0.783326	0.016666	0.000000	24	1	0	0.000000	0.000000	0.000000	19.929834	0.000000	1.000000	-0.284935
0.816658	0.016666	0.000000	25	1	0	0.000000	0.000000	0.000000	19.929834	0.000000	1.000000	-0.285109
0.849992	0.016666	0.000000	26	1	0	0.000000	0.000000	0.000000	19.929834	0.000000	1.000000	-0.285273
0.883325	0.016666	0.000000	27	1	0	0.000000	0.000000	0.000000	19.929834	0.000000	1.000000	-0.285399
0.916658	0.016666	0.000000	28	1	0	0.000000	0.000000	0.000000	19.929834	0.000000	1.000000	-0.285466
0.949991	0.016666	0.000000	29	1	0	0.000000	0.000000	0.000000	19.929834	0.000000	1.000000	-0.285491
0.983329	0.016666	0.000000	30	1	0	0.000000	0.000000	0.000000	19.929834	0.000000	1.000000	-0.285497
1.000000	0.016666	0.000000	31	1	0	0.000000	0.000000	0.000000	19.929834	0.000000	1.000000	0.000000
0.000000	0.049999	0.000000	0	2	0	0.000000	0.000000	0.000000	19.929834	0.000000	1.000000	0.000000
0.016666	0.049999	0.000000	1	2	0	0.000000	0.000000	0.000000	19.929834	0.000000	1.000000	-0.278836
0.049999	0.049999	0.000000	2	2	0	0.000000	0.000000	0.000000	19.929834	0.000000	1.000000	-0.279640
0.083332	0.049999	0.000000	3	2	0	0.000000	0.000000	0.000000	19.929834	0.000000	1.000000	-0.283383
0.116665	0.049999	0.000000	4	2	0	0.000000	0.000000	0.000000	19.929834	0.000000	1.000000	-0.284868
0.149999	0.049999	0.000000	5	2	0	0.000000	0.000000	0.000000	19.929834	0.000000	1.000000	-0.285458
0.183332	0.049999	0.000000	6	2	0	0.000000	0.000000	0.000000	19.929834	0.000000	1.000000	-0.285755
0.216665	0.049999	0.000000	7	2	0	0.000000	0.000000	0.000000	19.929834	0.000000	1.000000	-0.285998
0.249997	0.049999	0.000000	8	2	0	0.000000	0.000000	0.000000	19.929834	0.000000	1.000000	-0.286255
0.283331	0.049999	0.000000	9	2	0	0.000000	0.000000	0.000000	19.929834	0.000000	1.000000	-0.286527
0.316664	0.049999	0.000000	10	2	0	0.000000	0.000000	0.000000	19.929834	0.000000	1.000000	-0.286794
0.349997	0.049999	0.000000	11	2	0	0.000000	0.000000	0.000000	19.929834	0.000000	1.000000	-0.287029
0.383330	0.049999	0.000000	12	2	0	0.000000	0.000000	0.000000	19.929834	0.000000	1.000000	-0.287214
0.416663	0.049999	0.000000	13	2	0	0.000000	0.000000	0.000000	19.929834	0.000000	1.000000	-0.287342
0.449996	0.049999	0.000000	14	2	0	0.000000	0.000000	0.000000	19.929834	0.000000	1.000000	-0.287411
0.483329	0.049999	0.000000	15	2	0	0.000000	0.000000	0.000000	19.929834	0.000000	1.000000	-0.287412
0.516662	0.049999	0.000000	16	2	0	0.000000	0.000000	0.000000	19.929834	0.000000	1.000000	-0.287326
0.549994	0.049999	0.000000	17	2	0	0.000000	0.000000	0.000000	19.929834	0.000000	1.000000	-0.287112
0.583328	0.049999	0.000000	18	2	0	0.000000	0.000000	0.000000	19.929834	0.000000	1.000000	-0.286727
0.616660	0.049999	0.000000	19	2	0	0.000000	0.000000	0.000000	19.929834	0.000000	1.000000	-0.286169
0.649994	0.049999	0.000000	20	2	0	0.000000	0.000000	0.000000	19.929834	0.000000	1.000000	-0.285542
0.683326	0.049999	0.000000	21	2	0	0.000000	0.000000	0.000000	19.929834	0.000000	1.000000	-0.285045
0.716660	0.049999	0.000000	22	2	0	0.000000	0.000000	0.000000	19.929834	0.000000	1.000000	-0.284842
0.749992	0.049999	0.000000	23	2	0	0.000000	0.000000	0.000000	19.929834	0.000000	1.000000	-0.284915
0.783326	0.049999	0.000000	24	2	0	0.000000	0.000000	0.000000	19.929834	0.000000	1.000000	-0.285147
0.816658	0.049999	0.000000	25	2	0	0.000000	0.000000	0.000000	19.929834	0.000000	1.000000	-0.285441
0.849992	0.049999	0.000000	26	2	0	0.000000	0.000000	0.000000	19.929834	0.000000	1.000000	-0.285686
0.883325	0.049999	0.000000	27	2	0	0.000000	0.000000	0.000000	19.929834	0.000000	1.000000	-0.285843
0.916658	0.049999	0.000000	28	2	0	0.000000	0.000000	0.000000	19.929834	0.000000	1.000000	-0.285924
0.949991	0.049999	0.000000	29	2	0	0.000000	0.000000	0.000000	19.929834	0.000000	1.000000	-0.285945
0.983329	0.049999	0.000000	30	2	0	0.000000	0.000000	0.000000	19.929834	0.000000	1.000000	-0.285957
1.000000	0.049999	0.000000	31	2	0	0.000000	0.000000	0.000000	19.929834	0.000000	1.000000	0.000000
0.000000	0.083332	0.000000	0	3	0	0.000000	0.000000	0.000000	19.929834	0.000000	1.000000	0.000000
0.016666	0.083332	0.000000	1	3	0	0.000000	0.000000	0.000000	19.929834	0.000000	1.000000	-0.278049
0.049999	0.083332	0.000000	2	3	0	0.000000	0.000000	0.000000	19.929834	0.000000	1.000000	-0.279041
0.083332	0.083332	0.000000	3	3	0	0.000000	0.000000	0.000000	19.929834	0.000000	1.000000	-0.283079
0.116665	0.083332	0.000000	4	3	0	0.000000	0.000000	0.000000	19.929834	0.000000	1.000000	-0.284668
0.149999	0.083332	0.000000	5	3	0	0.000000	0.000000	0.000000	19.929834	0.000000	1.000000	-0.285317
0.183332	0.083332	0.000000	6	3	0	0.000000	0.000000	0.000000	19.929834	0.000000	1.000000	-0.285685
0.216665	0.083332	0.000000	7	3	0	0.000000	0.000000	0.000000	19.929834	0.000000	1.000000	-0.285989
0.249997	0.083332	0.000000	8	3	0	0.000000	0.000000	0.000000	19.929834	0.000000	1.000000	-0.286285
0.283331	0.083332	0.000000	9	3	0	0.000000	0.000000	0.000000	19.929834	0.000000	1.000000	-0.286573
0.316664	0.083332	0.000000	10	3	0	0.000000	0.000000	0.000000	19.929834	0.000000	1.000000	-0.286842
0.349997	0.083332	0.000000	11	3	0	0.000000	0.000000	0.000000	19.929834	0.000000	1.000000	-0.287070
0.383330	0.083332	0.000000	12	3	0	0.000000	0.000000	0.000000	19.929834	0.000000	1.000000	-0.287245
0.416663	0.083332	0.000000	13	3	0	0.000000	0.000000	0.000000	19.929834	0.000000	1.000000	-0.287363
0.449996	0.083332	0.000000	14	3	0	0.000000	0.000000	0.000000	19.929834	0.000000	1.000000	-0.287426
0.483329	0.083332	0.000000	15	3	0	0.000000	0.000000	0.000000	19.929834	0.000000	1.000000	-0.287427
0.516662	0.083332	0.000000	16	3	0	0.000000	0.000000	0.000000	19.929834	0.000000	1.000000	-0.287334
0.549994	0.083332	0.000000	17	3	0	0.000000	0.000000	0.000000	19.929834	0.000000	1.000000	-0.287109
0.583328	0.083332	0.000000	18	3	0	0.000000	0.000000	0.000000	19.929834	0.000000	1.000000	-0.286685
0.616660	0.083332	0.000000	19	3	0	0.000000	0.000000	0.000000	19.929834	0.000000	1.000000	-0.286050
0.649994	0.083332	0.000000	20	3	0	0.000000	0.000000	0.000000	19.929834	0.000000	1.000000	-0.285354
0.683326	0.083332	0.000000	21	3	0	0.000000	0.000000	0.000000	19.929834	0.000000	1.000000	-0.284890
0.716660	0.083332	0.000000	22	3	0	0.000000	0.000000	0.000000	19.929834	0.000000	1.000000	-0.284888
0.749992	0.083332	0.000000	23	3	0	0.000000	0.000000	0.000000	19.929834	0.000000	1.000000	-0.285272
0.783326	0.083332	0.000000	24	3	0	0.000000	0.000000	0.000000	19.929834	0.000000	1.000000	-0.285684
0.816658	0.083332	0.000000	25	3	0	0.000000	0.000000	0.000000	19.929834	0.000000	1.000000	-0.286009
0.849992	0.083332	0.000000	26	3	0	0.000000	0.000000	0.000000	19.929834	0.000000	1.000000	-0.286240
0.883325	0.083332	0.000000	27	3	0	0.000000	0.000000	0.000000	19.929834	0.000000	1.000000	-0.286376
0.916658	0.083332	0.000000	28	3	0	0.000000	0.000000	0.000000	19.929834	0.000000	1.000000	-0.286440
0.949991	0.083332	0.000000	29	3	0	0.000000	0.000000	0.000000	19.929834	0.000000	1.000000	-0.286460
0.983329	0.083332	0.000000	30	3	0	0.000000	0.000000	0.000000	19.929834	0.000000	1.000000	-0.286495
1.000000	0.083332	0.000000	31	3	0	0.000000	0.000000	0.000000	19.929834	0.000000	1.000000	0.000000
0.000000	0.116665	0.000000	0	4	0	0.000000	0.000000	0.000000	19.929834	0.000000	1.000000	0.000000
0.016666	0.116665	0.000000	1	4	0	0.000000	0.000000	0.000000	19.929834	0.000000	1.000000	-0.277002
0.049999	0.116665	0.000000	2	4	0	0.000000	0.000000	0.000000	19.929834	0.000000	1.000000	-0.278130
0.083332	0.116665	0.000000	3	4	0	0.000000	0.000000	0.000000	19.929834	0.000000	1.000000	-0.282553
0.116665	0.116665	0.000000	4	4	0	0.000000	0.000000	0.000000	19.929834	0.000000	1.000000	-0.284353
0.149999	0.116665	0.000000	5	4	0	0.000000	0.000000	0.000000	19.929834	0.000000	1.000000	-0.285138
0.183332	0.116665	0.000000	6	4	0	0.000000	0.000000	0.000000	19.929834	0.000000	1.000000	-0.285612
0.216665	0.116665	0.000000	7	4	0	0.000000	0.000000	0.000000	19.929834	0.000000	1.000000	-0.285991
0.249997	0.116665	0.000000	8	4	0	0.000000	0.000000	0.000000	19.929834	0.000000	1.000000	-0.286329
0.283331	0.116665	0.000000	9	4	0	0.000000	0.000000	0.000000	19.929834	0.000000	1.000000	-0.286631
0.316664	0.116665	0.000000	10	4	0	0.000000	0.000000	0.000000	19.929834	0.000000	1.000000	-0.286894
0.349997	0.116665	0.000000	11	4	0	0.000000	0.000000	0.000000	19.929834	0.000000	1.000000	-0.287107
0.383330	0.116665	0.000000	12	4	0	0.000000	0.000000	0.000000	19.929834	0.000000	1.000000	-0.287266
0.416663	0.116665	0.000000	13	4	0	0.000000	0.000000	0.000000	19.929834	0.000000	1.000000	-0.287371
0.449996	0.116665	0.000000	14	4	0	0.000000	0.000000	0.000000	19.929834	0.000000	1.000000	-0.287425
0.483329	0.116665	0.000000	15	4	0	0.000000	0.000000	0.000000	19.929834	0.000000	1.000000	-0.287415
0.516662	0.116665	0.000000	16	4	0	0.000000	0.000000	0.000000	19.929834	0.000000	1.000000	-0.287291
0.549994	0.116665	0.000000	17	4	0	0.000000	0.000000	0.000000	19.929834	0.000000	1.000000	-0.286998
0.583328	0.116665	0.000000	18	4	0	0.000000	0.000000	0.000000	19.929834	0.000000	1.000000	-0.286460
0.616660	0.116665	0.000000	19	4	0	0.000000	0.000000	0.000000	19.929834	0.000000	1.000000	-0.285696
0.649994	0.116665	0.000000	20	4	0	0.000000	0.000000	0.000000	19.929834	0.000000	1.000000	-0.284972
0.683326	0.116665	0.000000	21	4	0	0.000000	0.000000	0.000000	19.929834	0.000000	1.000000	-0.284788
0.716660	0.116665	0.000000	22	4	0	0.000000	0.000000	0.000000	19.929834	0.000000	1.000000	-0.285288
0.749992	0.116665	0.000000	23	4	0	0.000000	0.000000	0.000000	19.929834	0.000000	1.000000	-0.285861
0.783326	0.116665	0.000000	24	4	0	0.000000	0.000000	0.000000	19.929834	0.000000	1.000000	-0.286260
0.816658	0.116665	0.000000	25	4	0	0.000000	0.000000	0.000000	19.929834	0.000000	1.000000	-0.286511
0.849992	0.116665	0.000000	26	4	0	0.000000	0.000000	0.000000	19.929834	0.000000	1.000000	-0.286664
0.883325	0.116665	0.000000	27	4	0	0.000000	0.000000	0.000000	19.929834	0.000000	1.000000	-0.286750
0.916658	0.116665	0.000000	28	4	0	0.000000	0.000000	0.000000	19.929834	0.000000	1.000000	-0.286794
0.949991	0.116665	0.000000	29	4	0	0.000000	0.000000	0.000000	19.929834	0.000000	1.000000	-0.286830
0.983329	0.116665	0.000000	30	4	0	0.000000	0.000000	0.000000	19.929834	0.000000	1.000000	-0.286911
1.000000	0.116665	0.000000	31	4	0	0.000000	0.000000	0.000000	19.929834	0.000000	1.000000	0.000000
0.000000	0.149999	0.000000	0	5	0	0.000000	0.000000	0.000000	19.929834	0.000000	1.000000	0.000000
0.016666	0.149999	0.000000	1	5	0	0.000000	0.000000	0.000000	19.929834	0.000000	1.000000	-0.275780
0.049999	0.149999	0.000000	2	5	0	0.000000	0.000000	0.000000	19.929834	0.000000	1.000000	-0.277010
0.083332	0.149999	0.000000	3	5	0	0.000000	0.000000	0.000000	19.929834	0.000000	1.000000	-0.281801
0.116665	0.149999	0.000000	4	5	0	0.000000	0.000000	0.000000	19.929834	0.000000	1.000000	-0.283883
0.149999	0.149999	0.000000	5	5	0	0.000000	0.000000	0.000000	19.929834	0.000000	1.000000	-0.284896
0.183332	0.149999	0.000000	6	5	0	0.000000	0.000000	0.000000	19.929834	0.000000	1.000000	-0.285533
0.216665	0.149999	0.000000	7	5	0	0.000000	0.000000	0.000000	19.929834	0.000000	1.000000	-0.286011
0.249997	0.149999	0.000000	8	5	0	0.000000	0.000000	0.000000	19.929834	0.000000	1.000000	-0.286397
0.283331	0.149999	0.000000	9	5	0	0.000000	0.000000	0.000000	19.929834	0.000000	1.000000	-0.286710
0.316664	0.149999	0.000000	10	5	0	0.000000	0.000000	0.000000	19.929834	0.000000	1.000000	-0.286960
0.349997	0.149999	0.000000	11	5	0	0.000000	0.000000	0.000000	19.929834	0.000000	1.000000	-0.287150
0.383330	0.149999	0.000000	12	5	0	0.000000	0.000000	0.000000	19.929834	0.000000	1.000000	-0.287285
0.416663	0.149999	0.000000	13	5	0	0.000000	0.000000	0.000000	19.929834	0.000000	1.000000	-0.287368
0.449996	0.149999	0.000000	14	5	0	0.000000	0.000000	0.000000	19.929834	0.000000	1.000000	-0.287400
0.483329	0.149999	0.000000	15	5	0	0.000000	0.000000	0.000000	19.929834	0.000000	1.000000	-0.287355
0.516662	0.149999	0.000000	16	5	0	0.000000	0.000000	0.000000	19.929834	0.000000	1.000000	-0.287159
0.549994	0.149999	0.000000	17	5	0	0.000000	0.000000	0.000000	19.929834	0.000000	1.000000	-0.286745
0.583328	0.149999	0.000000	18	5	0	0.000000	0.000000	0.000000	19.929834	0.000000	1.000000	-0.286038
0.616660	0.149999	0.000000	19	5	0	0.000000	0.000000	0.000000	19.929834	0.000000	1.000000	-0.285157
0.649994	0.149999	0.000000	20	5	0	0.000000	0.000000	0.000000	19.929834	0.000000	1.000000	-0.284639
0.683326	0.149999	0.000000	21	5	0	0.000000	0.000000	0.000000	19.929834	0.000000	1.000000	-0.285101
0.716660	0.149999	0.000000	22	5	0	0.000000	0.000000	0.000000	19.929834	0.000000	1.000000	-0.285867
0.749992	0.149999	0.000000	23	5	0	0.000000	0.000000	0.000000	19.929834	0.000000	1.000000	-0.286372
0.783326	0.149999	0.000000	24	5	0	0.000000	0.000000	0.000000	19.929834	0.000000	1.000000	-0.286652
0.816658	0.149999	0.000000	25	5	0	0.000000	0.000000	0.000000	19.929834	0.000000	1.000000	-0.286807
0.849992	0.149999	0.000000	26	5	0	0.000000	0.000000	0.000000	19.929834	0.000000	1.000000	-0.286897
0.883325	0.149999	0.000000	27	5	0	0.000000	0.000000	0.000000	19.929834	0.000000	1.000000	-0.286952
0.916658	0.149999	0.000000	28	5	0	0.000000	0.000000	0.000000	19.929834	0.000000	1.000000	-0.286994
0.949991	0.149999	0.000000	29	5	0	0.000000	0.000000	0.000000	19.929834	0.000000	1.000000	-0.287050
0.983329	0.149999	0.000000	30	5	0	0.000000	0.000000	0.000000	19.929834	0.000000	1.000000	-0.287168
1.000000	0.149999	0.000000	31	5	0	0.000000	0.000000	0.000000	19.929834	0.000000	1.000000	0.000000
0.000000	0.183332	0.000000	0	6	0	0.000000	0.000000	0.000000	19.929834	0.000000	1.000000	0.000000
0.016666	0.183332	0.000000	1	6	0	0.000000	0.000000	0.000000	19.929834	0.000000	1.000000	-0.274332
0.049999	0.183332	0.000000	2	6	0	0.000000	0.000000	0.000000	19.929834	0.000000	1.000000	-0.275707
0.083332	0.183332	0.000000	3	6	0	0.000000	0.000000	0.000000	19.929834	0.000000	1.000000	-0.280826
0.116665	0.183332	0.000000	4	6	0	0.000000	0.000000	0.000000	19.929834	0.000000	1.000000	-0.283274
0.149999	0.183332	0.000000	5	6	0	0.000000	0.000000	0.000000	19.929834	0.000000	1.000000	-0.284599
0.183332	0.183332	0.000000	6	6	0	0.000000	0.000000	0.000000	19.929834	0.000000	1.000000	-0.285449
0.216665	0.183332	0.000000	7	6	0	0.000000	0.000000	0.000000	19.929834	0.000000	1.000000	-0.286049
0.249997	0.183332	0.000000	8	6	0	0.000000	0.000000	0.000000	19.929834	0.000000	1.000000	-0.286484
0.283331	0.183332	0.000000	9	6	0	0.000000	0.000000	0.000000	19.929834	0.000000	1.000000	-0.286801
0.316664	0.183332	0.000000	10	6	0	0.000000	0.000000	0.000000	19.929834	0.000000	1.000000	-0.287028
0.349997	0.183332	0.000000	11	6	0	0.000000	0.000000	0.000000	19.929834	0.000000	1.000000	-0.287185
0.383330	0.183332	0.000000	12	6	0	0.000000	0.000000	0.000000	19.929834	0.000000	1.000000	-0.287282
0.416663	0.183332	0.000000	13	6	0	0.000000	0.000000	0.000000	19.929834	0.000000	1.000000	-0.287328
0.449996	0.183332	0.000000	14	6	0	0.000000	0.000000	0.000000	19.929834	0.000000	1.000000	-0.287317
0.483329	0.183332	0.000000	15	6	0	0.000000	0.000000	0.000000	19.929834	0.000000	1.000000	-0.287201
0.516662	0.183332	0.000000	16	6	0	0.000000	0.000000	0.000000	19.929834	0.000000	1.000000	-0.286895
0.549994	0.183332	0.000000	17	6	0	0.000000	0.000000	0.000000	19.929834	0.000000	1.000000	-0.286313
0.583328	0.183332	0.000000	18	6	0	0.000000	0.000000	0.000000	19.929834	0.000000	1.000000	-0.285433
0.616660	0.183332	0.000000	19	6	0	0.000000	0.000000	0.000000	19.929834	0.000000	1.000000	-0.284594
0.649994	0.183332	0.000000	20	6	0	0.000000	0.000000	0.000000	19.929834	0.000000	1.000000	-0.284736
0.683326	0.183332	0.000000	21	6	0	0.000000	0.000000	0.000000	19.929834	0.000000	1.000000	-0.285663
0.716660	0.183332	0.000000	22	6	0	0.000000	0.000000	0.000000	19.929834	0.000000	1.000000	-0.286325
0.749992	0.183332	0.000000	23	6	0	0.000000	0.000000	0.000000	19.929834	0.000000	1.000000	-0.286668
0.783326	0.183332	0.000000	24	6	0	0.000000	0.000000	0.000000	19.929834	0.000000	1.000000	-0.286835
0.816658	0.183332	0.000000	25	6	0	0.000000	0.000000	0.000000	19.929834	0.000000	1.000000	-0.286928
0.849992	0.183332	0.000000	26	6	0	0.000000	0.000000	0.000000	19.929834	0.000000	1.000000	-0.286992
0.883325	0.183332	0.000000	27	6	0	0.000000	0.000000	0.000000	19.929834	0.000000	1.000000	-0.287039
0.916658	0.183332	0.000000	28	6	0	0.000000	0.000000	0.000000	19.929834	0.000000	1.000000	-0.287081
0.949991	0.183332	0.000000	29	6	0	0.000000	0.000000	0.000000	19.929834	0.000000	1.000000	-0.287150
0.983329	0.183332	0.000000	30	6	0	0.000000	0.000000	0.000000	19.929834	0.000000	1.000000	-0.287297
1.000000	0.183332	0.000000	31	6	0	0.000000	0.000000	0.000000	19.929834	0.000000	1.000000	0.000000
0.000000	0.216665	0.000000	0	7	0	0.000000	0.000000	0.000000	19.929834	0.000000	1.000000	0.000000
0.016666	0.216665	0.000000	1	7	0	0.000000	0.000000	0.000000	19.929834	0.000000	1.000000	-0.272647
0.049999	0.216665	0.000000	2	7	0	0.000000	0.000000	0.000000	19.929834	0.000000	1.000000	-0.274234
0.083332	0.216665	0.000000	3	7	0	0.000000	0.000000	0.000000	19.929834	0.000000	1.000000	-0.279632
0.116665	0.216665	0.000000	4	7	0	0.000000	0.000000	0.000000	19.929834	0.000000	1.000000	-0.282555
0.149999	0.216665	0.000000	5	7	0	0.000000	0.000000	0.000000	19.929834	0.000000	1.000000	-0.284284
0.183332	0.216665	0.000000	6	7	0	0.000000	0.000000	0.000000	19.929834	0.000000	1.000000	-0.285391
0.216665	0.216665	0.000000	7	7	0	0.000000	0.000000	0.000000	19.929834	0.000000	1.000000	-0.286121
0.249997	0.216665	0.000000	8	7	0	0.000000	0.000000	0.000000	19.929834	0.000000	1.000000	-0.286599
0.283331	0.216665	0.000000	9	7	0	0.000000	0.000000	0.000000	19.929834	0.000000	1.000000	-0.286905
0.316664	0.216665	0.000000	10	7	0	0.000000	0.000000	0.000000	19.929834	0.000000	1.000000	-0.287092
0.349997	0.216665	0.000000	11	7	0	0.000000	0.000000	0.000000	19.929834	0.000000	1.000000	-0.287196
0.383330	0.216665	0.000000	12	7	0	0.000000	0.000000	0.000000	19.929834	0.000000	1.000000	-0.287239
0.416663	0.216665	0.000000	13	7	0	0.000000	0.000000	0.000000	19.929834	0.000000	1.000000	-0.287229
0.449996	0.216665	0.000000	14	7	0	0.000000	0.000000	0.000000	19.929834	0.000000	1.000000	-0.287149
0.483329	0.216665	0.000000	15	7	0	0.000000	0.000000	0.000000	19.929834	0.000000	1.000000	-0.286921
0.516662	0.216665	0.000000	16	7	0	0.000000	0.000000	0.000000	19.929834	0.000000	1.000000	-0.286459
0.549994	0.216665	0.000000	17	7	0	0.000000	0.000000	0.000000	19.929834	0.000000	1.000000	-0.285688
0.583328	0.216665	0.000000	18	7	0	0.000000	0.000000	0.000000	19.929834	0.000000	1.000000	-0.284729
0.616660	0.216665	0.000000	19	7	0	0.000000	0.000000	0.000000	19.929834	0.000000	1.000000	-0.284381
0.649994	0.216665	0.000000	20	7	0	0.000000	0.000000	0.000000	19.929834	0.000000	1.000000	-0.285282
0.683326	0.216665	0.000000	21	7	0	0.000000	0.000000	0.000000	19.929834	0.000000	1.000000	-0.286123
0.716660	0.216665	0.000000	22	7	0	0.000000	0.000000	0.000000	19.929834	0.000000	1.000000	-0.286566
0.749992	0.216665	0.000000	23	7	0	0.000000	0.000000	0.000000	19.929834	0.000000	1.000000	-0.286765
0.783326	0.216665	0.000000	24	7	0	0.000000	0.000000	0.000000	19.929834	0.000000	1.000000	-0.286866
0.816658	0.216665	0.000000	25	7	0	0.000000	0.000000	0.000000	19.929834	0.000000	1.000000	-0.286933
0.849992	0.216665	0.000000	26	7	0	0.000000	0.000000	0.000000	19.929834	0.000000	1.000000	-0.286992
0.883325	0.216665	0.000000	27	7	0	0.000000	0.000000	0.000000	19.929834	0.000000	1.000000	-0.287043
0.916658	0.216665	0.000000	28	7	0	0.000000	0.000000	0.000000	19.929834	0.000000	1.000000	-0.287093
0.949991	0.216665	0.000000	29	7	0	0.000000	0.000000	0.000000	19.929834	0.000000	1.000000	-0.287172
0.983329	0.216665	0.000000	30	7	0	0.000000	0.000000	0.000000	19.929834	0.000000	1.000000	-0.287336
1.000000	0.216665	0.000000	31	7	0	0.000000	0.000000	0.000000	19.929834	0.000000	1.000000	0.000000
0.000000	0.249997	0.000000	0	8	0	0.000000	0.000000	0.000000	19.929834	0.000000	1.000000	0.000000
0.016666	0.249997	0.000000	1	8	0	0.000000	0.000000	0.000000	19.929834	0.000000	1.000000	-0.271051
0.049999	0.249997	0.000000	2	8	0	0.000000	0.000000	0.000000	19.929834	0.000000	1.000000	-0.272825
0.083332	0.249997	0.000000	3	8	0	0.000000	0.000000	0.000000	19.929834	0.000000	1.000000	-0.278431
0.116665	0.249997	0.000000	4	8	0	0.000000	0.000000	0.000000	19.929834	0.000000	1.000000	-0.281917
0.149999	0.249997	0.000000	5	8	0	0.000000	0.000000	0.000000	19.929834	0.000000	1.000000	-0.284094
0.183332	0.249997	0.000000	6	8	0	0.000000	0.000000	0.000000	19.929834	0.000000	1.000000	-0.285450
0.216665	0.249997	0.000000	7	8	0	0.000000	0.000000	0.000000	19.929834	0.000000	1.000000	-0.286277
0.249997	0.249997	0.000000	8	8	0	0.000000	0.000000	0.000000	19.929834	0.000000	1.000000	-0.286763
0.283331	0.249997	0.000000	9	8	0	0.000000	0.000000	0.000000	19.929834	0.000000	1.000000	-0.287027
0.316664	0.249997	0.000000	10	8	0	0.000000	0.000000	0.000000	19.929834	0.000000	1.000000	-0.287149
0.349997	0.249997	0.000000	11	8	0	0.000000	0.000000	0.000000	19.929834	0.000000	1.000000	-0.287179
0.383330	0.249997	0.000000	12	8	0	0.000000	0.000000	0.000000	19.929834	0.000000	1.000000	-0.287146
0.416663	0.249997	0.000000	13	8	0	0.000000	0.000000	0.000000	19.929834	0.000000	1.000000	-0.287055
0.449996	0.249997	0.000000	14	8	0	0.000000	0.000000	0.000000	19.929834	0.000000	1.000000	-0.286865
0.483329	0.249997	0.000000	15	8	0	0.000000	0.000000	0.000000	19.929834	0.000000	1.000000	-0.286476
0.516662	0.249997	0.000000	16	8	0	0.000000	0.000000	0.000000	19.929834	0.000000	1.000000	-0.285821
0.549994	0.249997	0.000000	17	8	0	0.000000	0.000000	0.000000	19.929834	0.000000	1.000000	-0.284912
0.583328	0.249997	0.000000	18	8	0	0.000000	0.000000	0.000000	19.929834	0.000000	1.000000	-0.284226
0.616660	0.249997	0.000000	19	8	0	0.000000	0.000000	0.000000	19.929834	0.000000	1.000000	-0.284882
0.649994	0.249997	0.000000	20	8	0	0.000000	0.000000	0.000000	19.929834	0.000000	1.000000	-0.285820
0.683326	0.249997	0.000000	21	8	0	0.000000	0.000000	0.000000	19.929834	0.000000	1.000000	-0.286369
0.716660	0.249997	0.000000	22	8	0	0.000000	0.000000	0.000000	19.929834	0.000000	1.000000	-0.286612
0.749992	0.249997	0.000000	23	8	0	0.000000	0.000000	0.000000	19.929834	0.000000	1.000000	-0.286710
0.783326	0.249997	0.000000	24	8	0	0.000000	0.000000	0.000000	19.929834	0.000000	1.000000	-0.286779
0.816658	0.249997	0.000000	25	8	0	0.000000	0.000000	0.000000	19.929834	0.000000	1.000000	-0.286850
0.849992	0.249997	0.000000	26	8	0	0.000000	0.000000	0.000000	19.929834	0.000000	1.000000	-0.286923
0.883325	0.249997	0.000000	27	8	0	0.000000	0.000000	0.000000	19.929834	0.000000	1.000000	-0.286989
0.916658	0.249997	0.000000	28	8	0	0.000000	0.000000	0.000000	19.929834	0.000000	1.000000	-0.287050
0.949991	0.249997	0.000000	29	8	0	0.000000	0.000000	0.000000	19.929834	0.000000	1.000000	-0.287136
0.983329	0.249997	0.000000	30	8	0	0.000000	0.000000	0.000000	19.929834	0.000000	1.000000	-0.287308
1.000000	0.249997	0.000000	31	8	0	0.000000	0.000000	0.000000	19.929834	0.000000	1.000000	0.000000
0.000000	0.283331	0.000000	0	9	0	0.000000	0.000000	0.000000	19.929834	0.000000	1.000000	0.000000
0.016666	0.283331	0.000000	1	9	0	0.000000	0.000000	0.000000	19.929834	0.000000	1.000000	-0.270601
0.049999	0.283331	0.000000	2	9	0	0.000000	0.000000	0.000000	19.929834	0.000000	1.000000	-0.272465
0.083332	0.283331	0.000000	3	9	0	0.000000	0.000000	0.000000	19.929834	0.000000	1.000000	-0.278122
0.116665	0.283331	0.000000	4	9	0	0.000000	0.000000	0.000000	19.929834	0.000000	1.000000	-0.281954
0.149999	0.283331	0.000000	5	9	0	0.000000	0.000000	0.000000	19.929834	0.000000	1.000000	-0.284352
0.183332	0.283331	0.000000	6	9	0	0.000000	0.000000	0.000000	19.929834	0.000000	1.000000	-0.285775
0.216665	0.283331	0.000000	7	9	0	0.000000	0.000000	0.000000	19.929834	0.000000	1.000000	-0.286580
0.249997	0.283331	0.000000	8	9	0	0.000000	0.000000	0.000000	19.929834	0.000000	1.000000	-0.286997
0.283331	0.283331	0.000000	9	9	0	0.000000	0.000000	0.000000	19.929834	0.000000	1.000000	-0.287170
0.316664	0.283331	0.000000	10	9	0	0.000000	0.000000	0.000000	19.929834	0.000000	1.000000	-0.287194
0.349997	0.283331	0.000000	11	9	0	0.000000	0.000000	0.000000	19.929834	0.000000	1.000000	-0.287122
0.383330	0.283331	0.000000	12	9	0	0.000000	0.000000	0.000000	19.929834	0.000000	1.000000	-0.286982
0.416663	0.283331	0.000000	13	9	0	0.000000	0.000000	0.000000	19.929834	0.000000	1.000000	-0.286772