TITLE = "dt=0.100000s, t=126.000000s, nu=0.000015, Lx=1.000000, Ly=1.000000, Lz=1.000000, Nx=12, Ny=12, Nz=12 "
VARIABLES =X, Y, Z, I, J, K, U, V, W, T, Xi, FlagP, P 
ZONE F=POINT, I=12, J=12, K=12
0.000000	0.000000	0.000000	0	0	0	0.000000	0.000000	0.000000	10.000000	0.000000	1.000000	0.000000
0.050000	0.000000	0.000000	1	0	0	0.000000	0.000000	0.000000	10.000000	0.000000	1.000000	0.000000
0.150000	0.000000	0.000000	2	0	0	0.000000	0.000000	0.000000	10.000000	0.000000	1.000000	0.000000
0.250000	0.000000	0.000000	3	0	0	0.000000	0.000000	0.000000	10.000000	0.000000	1.000000	0.000000
0.350000	0.000000	0.000000	4	0	0	0.000000	0.000000	0.000000	10.000000	0.000000	1.000000	0.000000
0.450000	0.000000	0.000000	5	0	0	0.000000	0.000000	0.000000	10.000000	0.000000	1.000000	0.000000
0.550000	0.000000	0.000000	6	0	0	0.000000	0.000000	0.000000	10.000000	0.000000	1.000000	0.000000
0.650000	0.000000	0.000000	7	0	0	0.000000	0.000000	0.000000	10.000000	0.000000	1.000000	0.000000
0.750000	0.000000	0.000000	8	0	0	0.000000	0.000000	0.000000	10.000000	0.000000	1.000000	0.000000
0.850000	0.000000	0.000000	9	0	0	0.000000	0.000000	0.000000	10.000000	0.000000	1.000000	0.000000
0.950000	0.000000	0.000000	10	0	0	0.000000	0.000000	0.000000	10.000000	0.000000	1.000000	0.000000
1.000000	0.000000	0.000000	11	0	0	0.000000	0.000000	0.000000	10.000000	0.000000	1.000000	0.000000
0.000000	0.050000	0.000000	0	1	0	0.000000	0.000000	0.000000	10.000000	0.000000	1.000000	0.000000
0.050000	0.050000	0.000000	1	1	0	0.000000	0.000000	0.000000	10.000000	0.099833	1.000000	6.397123
0.150000	0.050000	0.000000	2	1	0	0.000000	0.000000	0.000000	10.000000	0.000000	1.000000	6.396992
0.250000	0.050000	0.000000	3	1	0	0.000000	0.000000	0.000000	10.000000	0.000000	1.000000	6.396682
0.350000	0.050000	0.000000	4	1	0	0.000000	0.000000	0.000000	10.000000	0.000000	1.000000	6.396216
0.450000	0.050000	0.000000	5	1	0	0.000000	0.000000	0.000000	10.000000	0.000000	1.000000	6.395604
0.550000	0.050000	0.000000	6	1	0	0.000000	0.000000	0.000000	10.000000	0.000000	1.000000	6.394826
0.650000	0.050000	0.000000	7	1	0	0.000000	0.000000	0.000000	10.000000	0.000000	1.000000	6.393833
0.750000	0.050000	0.000000	8	1	0	0.000000	0.000000	0.000000	10.000000	0.000000	1.000000	6.392592
0.850000	0.050000	0.000000	9	1	0	0.000000	0.000000	0.000000	10.000000	0.000000	1.000000	6.391356
0.950000	0.050000	0.000000	10	1	0	0.000000	0.000000	0.000000	10.000000	0.000000	1.000000	6.391578
1.000000	0.050000	0.000000	11	1	0	0.000000	0.000000	0.000000	10.000000	0.000000	1.000000	0.000000
0.000000	0.150000	0.000000	0	2	0	0.000000	0.000000	0.000000	10.000000	0.000000	1.000000	0.000000
0.050000	0.150000	0.000000	1	2	0	0.000000	0.000000	0.000000	10.000000	0.099796	1.000000	6.397167
0.150000	0.150000	0.000000	2	2	0	0.000000	0.000000	0.000000	10.000000	0.000000	1.000000	6.397011
0.250000	0.150000	0.000000	3	2	0	0.000000	0.000000	0.000000	10.000000	0.000000	1.000000	6.396704
0.350000	0.150000	0.000000	4	2	0	0.000000	0.000000	0.000000	10.000000	0.000000	1.000000	6.396249
0.450000	0.150000	0.000000	5	2	0	0.000000	0.000000	0.000000	10.000000	0.000000	1.000000	6.395637
0.550000	0.150000	0.000000	6	2	0	0.000000	0.000000	0.000000	10.000000	0.000000	1.000000	6.394797
0.650000	0.150000	0.000000	7	2	0	0.000000	0.000000	0.000000	10.000000	0.000000	1.000000	6.393533
0.750000	0.150000	0.000000	8	2	0	0.000000	0.000000	0.000000	10.000000	0.000000	1.000000	6.391433
0.850000	0.150000	0.000000	9	2	0	0.000000	0.000000	0.000000	10.000000	0.000000	1.000000	6.388322
0.950000	0.150000	0.000000	10	2	0	0.000000	0.000000	0.000000	10.000000	0.000000	1.000000	6.390135
1.000000	0.150000	0.000000	11	2	0	0.000000	0.000000	0.000000	10.000000	0.000000	1.000000	0.000000
0.000000	0.250000	0.000000	0	3	0	0.000000	0.000000	0.000000	10.000000	0.000000	1.000000	0.000000
0.050000	0.250000	0.000000	1	3	0	0.000000	0.000000	0.000000	10.000000	0.099822	1.000000	6.397192
0.150000	0.250000	0.000000	2	3	0	0.000000	0.000000	0.000000	10.000000	0.000000	1.000000	6.397038
0.250000	0.250000	0.000000	3	3	0	0.000000	0.000000	0.000000	10.000000	0.000000	1.000000	6.396743
0.350000	0.250000	0.000000	4	3	0	0.000000	0.000000	0.000000	10.000000	0.000000	1.000000	6.396315
0.450000	0.250000	0.000000	5	3	0	0.000000	0.000000	0.000000	10.000000	0.000000	1.000000	6.395732
0.550000	0.250000	0.000000	6	3	0	0.000000	0.000000	0.000000	10.000000	0.000000	1.000000	6.394872
0.650000	0.250000	0.000000	7	3	0	0.000000	0.000000	0.000000	10.000000	0.000000	1.000000	6.393286
0.750000	0.250000	0.000000	8	3	0	0.000000	0.000000	0.000000	10.000000	0.000000	1.000000	6.389349
0.850000	0.250000	0.000000	9	3	0	0.000000	0.000000	0.000000	10.000000	0.000000	1.000000	6.376566
0.950000	0.250000	0.000000	10	3	0	0.000000	0.000000	0.000000	10.000000	0.000000	1.000000	6.387651
1.000000	0.250000	0.000000	11	3	0	0.000000	0.000000	0.000000	10.000000	0.000000	1.000000	0.000000
0.000000	0.350000	0.000000	0	4	0	0.000000	0.000000	0.000000	10.000000	0.000000	1.000000	0.000000
0.050000	0.350000	0.000000	1	4	0	0.000000	0.000000	0.000000	10.000000	0.099830	1.000000	6.397213
0.150000	0.350000	0.000000	2	4	0	0.000000	0.000000	0.000000	10.000000	0.000000	1.000000	6.397073
0.250000	0.350000	0.000000	3	4	0	0.000000	0.000000	0.000000	10.000000	0.000000	1.000000	6.396808
0.350000	0.350000	0.000000	4	4	0	0.000000	0.000000	0.000000	10.000000	0.000000	1.000000	6.396440
0.450000	0.350000	0.000000	5	4	0	0.000000	0.000000	0.000000	10.000000	0.000000	1.000000	6.395973
0.550000	0.350000	0.000000	6	4	0	0.000000	0.000000	0.000000	10.000000	0.000000	1.000000	6.395355
0.650000	0.350000	0.000000	7	4	0	0.000000	0.000000	0.000000	10.000000	0.000000	1.000000	6.394396
0.750000	0.350000	0.000000	8	4	0	0.000000	0.000000	0.000000	10.000000	0.000000	1.000000	6.392661
0.850000	0.350000	0.000000	9	4	0	0.000000	0.000000	0.000000	10.000000	0.000000	1.000000	6.389893
0.950000	0.350000	0.000000	10	4	0	0.000000	0.000000	0.000000	10.000000	0.000000	1.000000	6.391909
1.000000	0.350000	0.000000	11	4	0	0.000000	0.000000	0.000000	10.000000	0.000000	1.000000	0.000000
0.000000	0.450000	0.000000	0	5	0	0.000000	0.000000	0.000000	10.000000	0.000000	1.000000	0.000000
0.050000	0.450000	0.000000	1	5	0	0.000000	0.000000	0.000000	10.000000	0.099835	1.000000	6.397240
0.150000	0.450000	0.000000	2	5	0	0.000000	0.000000	0.000000	10.000000	0.000000	1.000000	6.397117
0.250000	0.450000	0.000000	3	5	0	0.000000	0.000000	0.000000	10.000000	0.000000	1.000000	6.396894
0.350000	0.450000	0.000000	4	5	0	0.000000	0.000000	0.000000	10.000000	0.000000	1.000000	6.396610
0.450000	0.450000	0.000000	5	5	0	0.000000	0.000000	0.000000	10.000000	0.000000	1.000000	6.396307
0.550000	0.450000	0.000000	6	5	0	0.000000	0.000000	0.000000	10.000000	0.000000	1.000000	6.396010
0.650000	0.450000	0.000000	7	5	0	0.000000	0.000000	0.000000	10.000000	0.000000	1.000000	6.395720
0.750000	0.450000	0.000000	8	5	0	0.000000	0.000000	0.000000	10.000000	0.000000	1.000000	6.395396
0.850000	0.450000	0.000000	9	5	0	0.000000	0.000000	0.000000	10.000000	0.000000	1.000000	6.395136
0.950000	0.450000	0.000000	10	5	0	0.000000	0.000000	0.000000	10.000000	0.000000	1.000000	6.396047
1.000000	0.450000	0.000000	11	5	0	0.000000	0.000000	0.000000	10.000000	0.000000	1.000000	0.000000
0.000000	0.550000	0.000000	0	6	0	0.000000	0.000000	0.000000	10.000000	0.000000	1.000000	0.000000
0.050000	0.550000	0.000000	1	6	0	0.000000	0.000000	0.000000	10.000000	0.099834	1.000000	6.397271
0.150000	0.550000	0.000000	2	6	0	0.000000	0.000000	0.000000	10.000000	0.000000	1.000000	6.397167
0.250000	0.550000	0.000000	3	6	0	0.000000	0.000000	0.000000	10.000000	0.000000	1.000000	6.396991
0.350000	0.550000	0.000000	4	6	0	0.000000	0.000000	0.000000	10.000000	0.000000	1.000000	6.396797
0.450000	0.550000	0.000000	5	6	0	0.000000	0.000000	0.000000	10.000000	0.000000	1.000000	6.396659
0.550000	0.550000	0.000000	6	6	0	0.000000	0.000000	0.000000	10.000000	0.000000	1.000000	6.396664
0.650000	0.550000	0.000000	7	6	0	0.000000	0.000000	0.000000	10.000000	0.000000	1.000000	6.396920
0.750000	0.550000	0.000000	8	6	0	0.000000	0.000000	0.000000	10.000000	0.000000	1.000000	6.397508
0.850000	0.550000	0.000000	9	6	0	0.000000	0.000000	0.000000	10.000000	0.000000	1.000000	6.398441
0.950000	0.550000	0.000000	10	6	0	0.000000	0.000000	0.000000	10.000000	0.000000	1.000000	6.400136
1.000000	0.550000	0.000000	11	6	0	0.000000	0.000000	0.000000	10.000000	0.000000	1.000000	0.000000
0.000000	0.650000	0.000000	0	7	0	0.000000	0.000000	0.000000	10.000000	0.000000	1.000000	0.000000
0.050000	0.650000	0.000000	1	7	0	0.000000	0.000000	0.000000	10.000000	0.099834	1.000000	6.397305
0.150000	0.650000	0.000000	2	7	0	0.000000	0.000000	0.000000	10.000000	0.000000	1.000000	6.397217
0.250000	0.650000	0.000000	3	7	0	0.000000	0.000000	0.000000	10.000000	0.000000	1.000000	6.397085
0.350000	0.650000	0.000000	4	7	0	0.000000	0.000000	0.000000	10.000000	0.000000	1.000000	6.396972
0.450000	0.650000	0.000000	5	7	0	0.000000	0.000000	0.000000	10.000000	0.000000	1.000000	6.396974
0.550000	0.650000	0.000000	6	7	0	0.000000	0.000000	0.000000	10.000000	0.000000	1.000000	6.397223
0.650000	0.650000	0.000000	7	7	0	0.000000	0.000000	0.000000	10.000000	0.000000	1.000000	6.397909
0.750000	0.650000	0.000000	8	7	0	0.000000	0.000000	0.000000	10.000000	0.000000	1.000000	6.399281
0.850000	0.650000	0.000000	9	7	0	0.000000	0.000000	0.000000	10.000000	0.000000	1.000000	6.401425
0.950000	0.650000	0.000000	10	7	0	0.000000	0.000000	0.000000	10.000000	0.000000	1.000000	6.405564
1.000000	0.650000	0.000000	11	7	0	0.000000	0.000000	0.000000	10.000000	0.000000	1.000000	0.000000
0.000000	0.750000	0.000000	0	8	0	0.000000	0.000000	0.000000	10.000000	0.000000	1.000000	0.000000
0.050000	0.750000	0.000000	1	8	0	0.000000	0.000000	0.000000	10.000000	0.099826	1.000000	6.397335
0.150000	0.750000	0.000000	2	8	0	0.000000	0.000000	0.000000	10.000000	0.000000	1.000000	6.397262
0.250000	0.750000	0.000000	3	8	0	0.000000	0.000000	0.000000	10.000000	0.000000	1.000000	6.397166
0.350000	0.750000	0.000000	4	8	0	0.000000	0.000000	0.000000	10.000000	0.000000	1.000000	6.397116
0.450000	0.750000	0.000000	5	8	0	0.000000	0.000000	0.000000	10.000000	0.000000	1.000000	6.397216
0.550000	0.750000	0.000000	6	8	0	0.000000	0.000000	0.000000	10.000000	0.000000	1.000000	6.397611
0.650000	0.750000	0.000000	7	8	0	0.000000	0.000000	0.000000	10.000000	0.000000	1.000000	6.398487
0.750000	0.750000	0.000000	8	8	0	0.000000	0.000000	0.000000	10.000000	0.000000	1.000000	6.400009
0.850000	0.750000	0.000000	9	8	0	0.000000	0.000000	0.000000	10.000000	0.000000	1.000000	6.402011
0.950000	0.750000	0.000000	10	8	0	0.000000	0.000000	0.000000	10.000000	0.000000	1.000000	6.404972
1.000000	0.750000	0.000000	11	8	0	0.000000	0.000000	0.000000	10.000000	0.000000	1.000000	0.000000
0.000000	0.850000	0.000000	0	9	0	0.000000	0.000000	0.000000	10.000000	0.000000	1.000000	0.000000
0.050000	0.850000	0.000000	1	9	0	0.000000	0.000000	0.000000	10.000000	0.099802	1.000000	6.397353
0.150000	0.850000	0.000000	2	9	0	0.000000	0.000000	0.000000	10.000000	0.000000	1.000000	6.397294
0.250000	0.850000	0.000000	3	9	0	0.000000	0.000000	0.000000	10.000000	0.000000	1.000000	6.397227
0.350000	0.850000	0.000000	4	9	0	0.000000	0.000000	0.000000	10.000000	0.000000	1.000000	6.397217
0.450000	0.850000	0.000000	5	9	0	0.000000	0.000000	0.000000	10.000000	0.000000	1.000000	6.397375
0.550000	0.850000	0.000000	6	9	0	0.000000	0.000000	0.000000	10.000000	0.000000	1.000000	6.397839
0.650000	0.850000	0.000000	7	9	0	0.000000	0.000000	0.000000	10.000000	0.000000	1.000000	6.398775
0.750000	0.850000	0.000000	8	9	0	0.000000	0.000000	0.000000	10.000000	0.000000	1.000000	6.400267
0.850000	0.850000	0.000000	9	9	0	0.000000	0.000000	0.000000	10.000000	0.000000	1.000000	6.401982
0.950000	0.850000	0.000000	10	9	0	0.000000	0.000000	0.000000	10.000000	0.000000	1.000000	6.404040
1.000000	0.850000	0.000000	11	9	0	0.000000	0.000000	0.000000	10.000000	0.000000	1.000000	0.000000
0.000000	0.950000	0.000000	0	10	0	0.000000	0.000000	0.000000	10.000000	0.000000	1.000000	0.000000
0.050000	0.950000	0.000000	1	10	0	0.000000	0.000000	0.000000	10.000000	0.099834	1.000000	6.397345
0.150000	0.950000	0.000000	2	10	0	0.000000	0.000000	0.000000	10.000000	0.000000	1.000000	6.397315
0.250000	0.950000	0.000000	3	10	0	0.000000	0.000000	0.000000	10.000000	0.000000	1.000000	6.397266
0.350000	0.950000	0.000000	4	10	0	0.000000	0.000000	0.000000	10.000000	0.000000	1.000000	6.397275
0.450000	0.950000	0.000000	5	10	0	0.000000	0.000000	0.000000	10.000000	0.000000	1.000000	6.397456
0.550000	0.950000	0.000000	6	10	0	0.000000	0.000000	0.000000	10.000000	0.000000	1.000000	6.397949
0.650000	0.950000	0.000000	7	10	0	0.000000	0.000000	0.000000	10.000000	0.000000	1.000000	6.398900
0.750000	0.950000	0.000000	8	10	0	0.000000	0.000000	0.000000	10.000000	0.000000	1.000000	6.400353
0.850000	0.950000	0.000000	9	10	0	0.000000	0.000000	0.000000	10.000000	0.000000	1.000000	6.401896
0.950000	0.950000	0.000000	10	10	0	0.000000	0.000000	0.000000	10.000000	0.000000	1.000000	6.403612
1.000000	0.950000	0.000000	11	10	0	0.000000	0.000000	0.000000	10.000000	0.000000	1.000000	0.000000
0.000000	1.000000	0.000000	0	11	0	0.000000	0.000000	0.000000	10.000000	0.000000	1.000000	0.000000
0.050000	1.000000	0.000000	1	11	0	0.000000	0.000000	0.000000	10.000000	0.000000	1.000000	0.000000
0.150000	1.000000	0.000000	2	11	0	0.000000	0.000000	0.000000	10.000000	0.000000	1.000000	0.000000
0.250000	1.000000	0.000000	3	11	0	0.000000	0.000000	0.000000	10.000000	0.000000	1.000000	0.000000
0.350000	1.000000	0.000000	4	11	0	0.000000	0.000000	0.000000	10.000000	0.000000	1.000000	0.000000
0.450000	1.000000	0.000000	5	11	0	0.000000	0.000000	0.000000	10.000000	0.000000	1.000000	0.000000
0.550000	1.000000	0.000000	6	11	0	0.000000	0.000000	0.000000	10.000000	0.000000	1.000000	0.000000
0.650000	1.000000	0.000000	7	11	0	0.000000	0.000000	0.000000	10.000000	0.000000	1.000000	0.000000
0.750000	1.000000	0.000000	8	11	0	0.000000	0.000000	0.000000	10.000000	0.000000	1.000000	0.000000
0.850000	1.000000	0.000000	9	11	0	0.000000	0.000000	0.000000	10.000000	0.000000	1.000000	0.000000
0.950000	1.000000	0.000000	10	11	0	0.000000	0.000000	0.000000	10.000000	0.000000	1.000000	0.000000
1.000000	1.000000	0.000000	11	11	0	0.000000	0.000000	0.000000	10.000000	0.000000	1.000000	0.000000
0.000000	0.000000	0.050000	0	0	1	0.000000	0.000000	0.000000	10.000000	0.000000	1.000000	0.000000
0.050000	0.000000	0.050000	1	0	1	0.000000	0.000000	0.000000	10.000000	0.099833	1.000000	6.397123
0.150000	0.000000	0.050000	2	0	1	0.000000	0.000000	0.000000	10.000000	0.000000	1.000000	6.396992
0.250000	0.000000	0.050000	3	0	1	0.000000	0.000000	0.000000	10.000000	0.000000	1.000000	6.396682
0.350000	0.000000	0.050000	4	0	1	0.000000	0.000000	0.000000	10.000000	0.000000	1.000000	6.396216
0.450000	0.000000	0.050000	5	0	1	0.000000	0.000000	0.000000	10.000000	0.000000	1.000000	6.395604
0.550000	0.000000	0.050000	6	0	1	0.000000	0.000000	0.000000	10.000000	0.000000	1.000000	6.394826
0.650000	0.000000	0.050000	7	0	1	0.000000	0.000000	0.000000	10.000000	0.000000	1.000000	6.393833
0.750000	0.000000	0.050000	8	0	1	0.000000	0.000000	0.000000	10.000000	0.000000	1.000000	6.392592
0.850000	0.000000	0.050000	9	0	1	0.000000	0.000000	0.000000	10.000000	0.000000	1.000000	6.391356
0.950000	0.000000	0.050000	10	0	1	0.000000	0.000000	0.000000	10.000000	0.000000	1.000000	6.391578
1.000000	0.000000	0.050000	11	0	1	0.000000	0.000000	0.000000	10.000000	0.000000	1.000000	0.000000
0.000000	0.050000	0.050000	0	1	1	0.000000	0.000000	0.000000	10.000000	0.099833	1.000000	6.397123
0.050000	0.050000	0.050000	1	1	1	-0.002708	-0.001544	0.004125	10.000000	0.099969	-1.000000	6.397123
0.150000	0.050000	0.050000	2	1	1	-0.010169	0.000389	0.004118	10.000000	0.049456	-1.000000	6.396992
0.250000	0.050000	0.050000	3	1	1	-0.019046	0.000324	0.003579	10.000000	0.055468	-1.000000	6.396682
0.350000	0.050000	0.050000	4	1	1	-0.026143	0.000111	0.002654	10.000000	0.058564	-1.000000	6.396216
0.450000	0.050000	0.050000	5	1	1	-0.030565	-0.000006	0.001259	10.000000	0.060767	-1.000000	6.395604
0.550000	0.050000	0.050000	6	1	1	-0.031554	-0.000029	-0.000622	10.000000	0.062643	-1.000000	6.394826
0.650000	0.050000	0.050000	7	1	1	-0.028119	0.000056	-0.003204	10.000000	0.064420	-1.000000	6.393833
0.750000	0.050000	0.050000	8	1	1	-0.019475	0.000395	-0.006233	10.000000	0.066111	-1.000000	6.392592
0.850000	0.050000	0.050000	9	1	1	-0.006941	0.001149	-0.008164	10.000000	0.067460	-1.000000	6.391356
0.950000	0.050000	0.050000	10	1	1	0.030239	-0.000342	0.000089	10.000000	0.066619	-1.000000	6.391578
1.000000	0.050000	0.050000	11	1	1	0.060559	0.000000	0.000000	10.000000	0.066619	2.000000	6.391578
0.000000	0.150000	0.050000	0	2	1	0.000000	0.000000	0.000000	10.000000	0.099796	1.000000	6.397167
0.050000	0.150000	0.050000	1	2	1	-0.005483	-0.002093	0.004239	10.000000	0.099895	-1.000000	6.397167
0.150000	0.150000	0.050000	2	2	1	-0.014867	0.000523	0.003815	10.000000	0.064986	-1.000000	6.397011
0.250000	0.150000	0.050000	3	2	1	-0.022197	0.000663	0.003107	10.000000	0.068252	-1.000000	6.396704
0.350000	0.150000	0.050000	4	2	1	-0.028209	0.000459	0.002052	10.000000	0.070495	-1.000000	6.396249
0.450000	0.150000	0.050000	5	2	1	-0.031982	0.000342	0.000555	10.000000	0.072135	-1.000000	6.395637
0.550000	0.150000	0.050000	6	2	1	-0.032451	0.000388	-0.001435	10.000000	0.073570	-1.000000	6.394797
0.650000	0.150000	0.050000	7	2	1	-0.028369	0.000753	-0.004250	10.000000	0.074991	-1.000000	6.393533
0.750000	0.150000	0.050000	8	2	1	-0.018792	0.002181	-0.007846	10.000000	0.076537	-1.000000	6.391433
0.850000	0.150000	0.050000	9	2	1	-0.007237	0.007991	-0.011253	10.000000	0.077956	-1.000000	6.388322
0.950000	0.150000	0.050000	10	2	1	0.029215	0.002482	-0.004278	10.000000	0.077421	-1.000000	6.390135
1.000000	0.150000	0.050000	11	2	1	0.060331	0.000000	0.000000	10.000000	0.077421	2.000000	6.390135
0.000000	0.250000	0.050000	0	3	1	0.000000	0.000000	0.000000	10.000000	0.099822	1.000000	6.397192
0.050000	0.250000	0.050000	1	3	1	-0.005015	-0.000594	0.004276	10.000000	0.099914	-1.000000	6.397192
0.150000	0.250000	0.050000	2	3	1	-0.014278	0.000254	0.003939	10.000000	0.066981	-1.000000	6.397038
0.250000	0.250000	0.050000	3	3	1	-0.022034	0.000603	0.003285	10.000000	0.069910	-1.000000	6.396743
0.350000	0.250000	0.050000	4	3	1	-0.028089	0.000678	0.002278	10.000000	0.071790	-1.000000	6.396315
0.450000	0.250000	0.050000	5	3	1	-0.031758	0.000719	0.000819	10.000000	0.073258	-1.000000	6.395732
0.550000	0.250000	0.050000	6	3	1	-0.031985	0.000811	-0.001142	10.000000	0.074593	-1.000000	6.394872
0.650000	0.250000	0.050000	7	3	1	-0.026961	0.000978	-0.003977	10.000000	0.075922	-1.000000	6.393286
0.750000	0.250000	0.050000	8	3	1	-0.012714	0.001205	-0.008003	10.000000	0.077344	-1.000000	6.389349
0.850000	0.250000	0.050000	9	3	1	0.024270	0.001479	-0.014907	10.000000	0.078620	-1.000000	6.376566
0.950000	0.250000	0.050000	10	3	1	0.086888	0.001952	-0.002072	10.000000	0.077820	-1.000000	6.387651
1.000000	0.250000	0.050000	11	3	1	0.122640	0.000000	0.000000	10.000000	0.077820	2.000000	6.387651
0.000000	0.350000	0.050000	0	4	1	0.000000	0.000000	0.000000	10.000000	0.099830	1.000000	6.397213
0.050000	0.350000	0.050000	1	4	1	-0.004756	0.000136	0.004293	10.000000	0.099922	-1.000000	6.397213
0.150000	0.350000	0.050000	2	4	1	-0.013887	0.000318	0.003966	10.000000	0.067016	-1.000000	6.397073
0.250000	0.350000	0.050000	3	4	1	-0.021863	0.000526	0.003292	10.000000	0.070093	-1.000000	6.396808
0.350000	0.350000	0.050000	4	4	1	-0.028034	0.000659	0.002267	10.000000	0.071983	-1.000000	6.396440
0.450000	0.350000	0.050000	5	4	1	-0.031738	0.000773	0.000799	10.000000	0.073446	-1.000000	6.395973
0.550000	0.350000	0.050000	6	4	1	-0.032105	0.000875	-0.001155	10.000000	0.074774	-1.000000	6.395355
0.650000	0.350000	0.050000	7	4	1	-0.027932	0.000769	-0.003910	10.000000	0.076095	-1.000000	6.394396
0.750000	0.350000	0.050000	8	4	1	-0.018282	-0.000359	-0.007341	10.000000	0.077511	-1.000000	6.392661
0.850000	0.350000	0.050000	9	4	1	-0.006824	-0.006009	-0.010221	10.000000	0.078800	-1.000000	6.389893
0.950000	0.350000	0.050000	10	4	1	0.029607	-0.001602	-0.001422	10.000000	0.077966	-1.000000	6.391909
1.000000	0.350000	0.050000	11	4	1	0.060824	0.000000	0.000000	10.000000	0.077966	2.000000	6.391909
0.000000	0.450000	0.050000	0	5	1	0.000000	0.000000	0.000000	10.000000	0.099835	1.000000	6.397240
0.050000	0.450000	0.050000	1	5	1	-0.004674	0.000483	0.004306	10.000000	0.099927	-1.000000	6.397240
0.150000	0.450000	0.050000	2	5	1	-0.013759	0.000542	0.003912	10.000000	0.066981	-1.000000	6.397117
0.250000	0.450000	0.050000	3	5	1	-0.021813	0.000678	0.003162	10.000000	0.070136	-1.000000	6.396894
0.350000	0.450000	0.050000	4	5	1	-0.028039	0.000838	0.002076	10.000000	0.072059	-1.000000	6.396610
0.450000	0.450000	0.050000	5	5	1	-0.031761	0.001050	0.000562	10.000000	0.073545	-1.000000	6.396307
0.550000	0.450000	0.050000	6	5	1	-0.032190	0.001346	-0.001430	10.000000	0.074893	-1.000000	6.396010
0.650000	0.450000	0.050000	7	5	1	-0.028340	0.001721	-0.004229	10.000000	0.076236	-1.000000	6.395720
0.750000	0.450000	0.050000	8	5	1	-0.019557	0.002118	-0.007666	10.000000	0.077706	-1.000000	6.395396
0.850000	0.450000	0.050000	9	5	1	-0.007460	0.002332	-0.010427	10.000000	0.079093	-1.000000	6.395136
0.950000	0.450000	0.050000	10	5	1	0.029660	0.001035	-0.003274	10.000000	0.078444	-1.000000	6.396047
1.000000	0.450000	0.050000	11	5	1	0.060324	0.000000	0.000000	10.000000	0.078444	2.000000	6.396047
0.000000	0.550000	0.050000	0	6	1	0.000000	0.000000	0.000000	10.000000	0.099834	1.000000	6.397271
0.050000	0.550000	0.050000	1	6	1	-0.004606	0.000656	0.004299	10.000000	0.099926	-1.000000	6.397271
0.150000	0.550000	0.050000	2	6	1	-0.013554	0.000684	0.003983	10.000000	0.066959	-1.000000	6.397167
0.250000	0.550000	0.050000	3	6	1	-0.021475	0.000756	0.003307	10.000000	0.070089	-1.000000	6.396991
0.350000	0.550000	0.050000	4	6	1	-0.027571	0.000910	0.002273	10.000000	0.071981	-1.000000	6.396797
0.450000	0.550000	0.050000	5	6	1	-0.031142	0.001188	0.000798	10.000000	0.073437	-1.000000	6.396659
0.550000	0.550000	0.050000	6	6	1	-0.031347	0.001678	-0.001174	10.000000	0.074758	-1.000000	6.396664
0.650000	0.550000	0.050000	7	6	1	-0.027040	0.002617	-0.003994	10.000000	0.076070	-1.000000	6.396920
0.750000	0.550000	0.050000	8	6	1	-0.017436	0.004798	-0.007550	10.000000	0.077481	-1.000000	6.397508
0.850000	0.550000	0.050000	9	6	1	-0.006520	0.011209	-0.010421	10.000000	0.078812	-1.000000	6.398441
0.950000	0.550000	0.050000	10	6	1	0.029305	0.002654	-0.000344	10.000000	0.077981	-1.000000	6.400136
1.000000	0.550000	0.050000	11	6	1	0.060362	0.000000	0.000000	10.000000	0.077981	2.000000	6.400136
0.000000	0.650000	0.050000	0	7	1	0.000000	0.000000	0.000000	10.000000	0.099834	1.000000	6.397305
0.050000	0.650000	0.050000	1	7	1	-0.004735	0.000902	0.004272	10.000000	0.099926	-1.000000	6.397305
0.150000	0.650000	0.050000	2	7	1	-0.013770	0.000738	0.003860	10.000000	0.067107	-1.000000	6.397217
0.250000	0.650000	0.050000	3	7	1	-0.021579	0.000720	0.003106	10.000000	0.070151	-1.000000	6.397085
0.350000	0.650000	0.050000	4	7	1	-0.027528	0.000875	0.001997	10.000000	0.072031	-1.000000	6.396972
0.450000	0.650000	0.050000	5	7	1	-0.030903	0.001189	0.000439	10.000000	0.073493	-1.000000	6.396974
0.550000	0.650000	0.050000	6	7	1	-0.030688	0.001730	-0.001658	10.000000	0.074831	-1.000000	6.397223
0.650000	0.650000	0.050000	7	7	1	-0.025150	0.002749	-0.004797	10.000000	0.076168	-1.000000	6.397909
0.750000	0.650000	0.050000	8	7	1	-0.010891	0.004996	-0.009503	10.000000	0.077640	-1.000000	6.399281
0.850000	0.650000	0.050000	9	7	1	0.021365	0.011102	-0.017472	10.000000	0.079072	-1.000000	6.401425
0.950000	0.650000	0.050000	10	7	1	0.076031	0.002683	-0.003389	10.000000	0.078505	-1.000000	6.405564
1.000000	0.650000	0.050000	11	7	1	0.108309	0.000000	0.000000	10.000000	0.078505	2.000000	6.405564
0.000000	0.750000	0.050000	0	8	1	0.000000	0.000000	0.000000	10.000000	0.099826	1.000000	6.397335
0.050000	0.750000	0.050000	1	8	1	-0.004778	0.001359	0.004243	10.000000	0.099917	-1.000000	6.397335
0.150000	0.750000	0.050000	2	8	1	-0.013724	0.000608	0.003968	10.000000	0.066846	-1.000000	6.397262
0.250000	0.750000	0.050000	3	8	1	-0.021286	0.000452	0.003324	10.000000	0.069856	-1.000000	6.397166
0.350000	0.750000	0.050000	4	8	1	-0.027028	0.000618	0.002292	10.000000	0.071743	-1.000000	6.397116
0.450000	0.750000	0.050000	5	8	1	-0.030198	0.000929	0.000780	10.000000	0.073194	-1.000000	6.397216
0.550000	0.750000	0.050000	6	8	1	-0.029695	0.001379	-0.001301	10.000000	0.074507	-1.000000	6.397611
0.650000	0.750000	0.050000	7	8	1	-0.023670	0.002039	-0.004461	10.000000	0.075807	-1.000000	6.398487
0.750000	0.750000	0.050000	8	8	1	-0.008910	0.002921	-0.009264	10.000000	0.077204	-1.000000	6.400009
0.850000	0.750000	0.050000	9	8	1	0.020235	0.003340	-0.017159	10.000000	0.078557	-1.000000	6.402011
0.950000	0.750000	0.050000	10	8	1	0.071010	0.001590	0.000078	10.000000	0.077792	-1.000000	6.404972
1.000000	0.750000	0.050000	11	8	1	0.102700	0.000000	0.000000	10.000000	0.077792	2.000000	6.404972
0.000000	0.850000	0.050000	0	9	1	0.000000	0.000000	0.000000	10.000000	0.099802	1.000000	6.397353
0.050000	0.850000	0.050000	1	9	1	-0.005306	0.002464	0.004185	10.000000	0.099899	-1.000000	6.397353
0.150000	0.850000	0.050000	2	9	1	-0.014384	0.000048	0.003751	10.000000	0.065032	-1.000000	6.397294
0.250000	0.850000	0.050000	3	9	1	-0.021395	-0.000012	0.003016	10.000000	0.068298	-1.000000	6.397227
0.350000	0.850000	0.050000	4	9	1	-0.026950	0.000306	0.001908	10.000000	0.070502	-1.000000	6.397217
0.450000	0.850000	0.050000	5	9	1	-0.030081	0.000639	0.000325	10.000000	0.072107	-1.000000	6.397375
0.550000	0.850000	0.050000	6	9	1	-0.029558	0.000988	-0.001837	10.000000	0.073507	-1.000000	6.397839
0.650000	0.850000	0.050000	7	9	1	-0.023596	0.001396	-0.005135	10.000000	0.074889	-1.000000	6.398775
0.750000	0.850000	0.050000	8	9	1	-0.009395	0.001823	-0.010225	10.000000	0.076406	-1.000000	6.400267
0.850000	0.850000	0.050000	9	9	1	0.017393	0.001877	-0.018634	10.000000	0.077914	-1.000000	6.401982
0.950000	0.850000	0.050000	10	9	1	0.065842	0.001477	-0.003359	10.000000	0.077418	-1.000000	6.404040
1.000000	0.850000	0.050000	11	9	1	0.097080	0.000000	0.000000	10.000000	0.077418	2.000000	6.404040
0.000000	0.950000	0.050000	0	10	1	0.000000	0.000000	0.000000	10.000000	0.099834	1.000000	6.397345
0.050000	0.950000	0.050000	1	10	1	-0.002684	0.001655	0.004074	10.000000	0.099969	-1.000000	6.397345
0.150000	0.950000	0.050000	2	10	1	-0.009930	-0.000161	0.004035	10.000000	0.049719	-1.000000	6.397315
0.250000	0.950000	0.050000	3	10	1	-0.018383	-0.000084	0.003459	10.000000	0.055552	-1.000000	6.397266
0.350000	0.950000	0.050000	4	10	1	-0.024939	0.000163	0.002466	10.000000	0.058606	-1.000000	6.397275
0.450000	0.950000	0.050000	5	10	1	-0.028596	0.000358	0.000967	10.000000	0.060784	-1.000000	6.397456
0.550000	0.950000	0.050000	6	10	1	-0.028351	0.000526	-0.001118	10.000000	0.062647	-1.000000	6.397949
0.650000	0.950000	0.050000	7	10	1	-0.022506	0.000723	-0.004314	10.000000	0.064408	-1.000000	6.398900
0.750000	0.950000	0.050000	8	10	1	-0.008109	0.000996	-0.009238	10.000000	0.066120	-1.000000	6.400353
0.850000	0.950000	0.050000	9	10	1	0.019873	0.001408	-0.017232	10.000000	0.067636	-1.000000	6.401896
0.950000	0.950000	0.050000	10	10	1	0.069135	0.001681	0.000428	10.000000	0.066786	-1.000000	6.403612
1.000000	0.950000	0.050000	11	10	1	0.100203	0.000000	0.000000	10.000000	0.066786	2.000000	6.403612
0.000000	1.000000	0.050000	0	11	1	0.000000	0.000000	0.000000	10.000000	0.000000	1.000000	0.000000
0.050000	1.000000	0.050000	1	11	1	0.000000	0.000000	0.000000	10.000000	0.099834	1.000000	6.397345
0.150000	1.000000	0.050000	2	11	1	0.000000	0.000000	0.000000	10.000000	0.000000	1.000000	6.397315
0.250000	1.000000	0.050000	3	11	1	0.000000	0.000000	0.000000	10.000000	0.000000	1.000000	6.397266
0.350000	1.000000	0.050000	4	11	1	0.000000	0.000000	0.000000	10.000000	0.000000	1.000000	6.397275
0.450000	1.000000	0.050000	5	11	1	0.000000	0.000000	0.000000	10.000000	0.000000	1.000000	6.397456
0.550000	1.000000	0.050000	6	11	1	0.000000	0.000000	0.000000	10.000000	0.000000	1.000000	6.397949
0.650000	1.000000	0.050000	7	11	1	0.000000	0.000000	0.000000	10.000000	0.000000	1.000000	6.398900
0.750000	1.000000	0.050000	8	11	1	0.000000	0.000000	0.000000	10.000000	0.000000	1.000000	6.400353
0.850000	1.000000	0.050000	9	11	1	0.000000	0.000000	0.000000	10.000000	0.000000	1.000000	6.401896
0.950000	1.000000	0.050000	10	11	1	0.000000	0.000000	0.000000	10.000000	0.000000	1.000000	6.403612
1.000000	1.000000	0.050000	11	11	1	0.000000	0.000000	0.000000	10.000000	0.000000	1.000000	0.000000
0.000000	0.000000	0.150000	0	0	2	0.000000	0.000000	0.000000	10.000000	0.000000	1.000000	0.000000
0.050000	0.000000	0.150000	1	0	2	0.000000	0.000000	0.000000	10.000000	0.099969	1.000000	6.397149
0.150000	0.000000	0.150000	2	0	2	0.000000	0.000000	0.000000	10.000000	0.000000	1.000000	6.397019
0.250000	0.000000	0.150000	3	0	2	0.000000	0.000000	0.000000	10.000000	0.000000	1.000000	6.396700
0.350000	0.000000	0.150000	4	0	2	0.000000	0.000000	0.000000	10.000000	0.000000	1.000000	6.396227
0.450000	0.000000	0.150000	5	0	2	0.000000	0.000000	0.000000	10.000000	0.000000	1.000000	6.395634
0.550000	0.000000	0.150000	6	0	2	0.000000	0.000000	0.000000	10.000000	0.000000	1.000000	6.394921
0.650000	0.000000	0.150000	7	0	2	0.000000	0.000000	0.000000	10.000000	0.000000	1.000000	6.394107
0.750000	0.000000	0.150000	8	0	2	0.000000	0.000000	0.000000	10.000000	0.000000	1.000000	6.393269
0.850000	0.000000	0.150000	9	0	2	0.000000	0.000000	0.000000	10.000000	0.000000	1.000000	6.392807
0.950000	0.000000	0.150000	10	0	2	0.000000	0.000000	0.000000	10.000000	0.000000	1.000000	6.392775
1.000000	0.000000	0.150000	11	0	2	0.000000	0.000000	0.000000	10.000000	0.000000	1.000000	0.000000
0.000000	0.050000	0.150000	0	1	2	0.000000	0.000000	0.000000	10.000000	0.099969	1.000000	6.397149
0.050000	0.050000	0.150000	1	1	2	-0.002977	-0.001461	0.012559	10.000000	0.099986	-1.000000	6.397149
0.150000	0.050000	0.150000	2	1	2	-0.011355	0.000702	0.012690	10.000000	0.052104	-1.000000	6.397019