TITLE = "dt=0.100000s, t=1830.000000s, nu=0.000016, Lx=1.000000, Ly=1.000000, Lz=1.000000, Nx=12, Ny=12, Nz=12 "
VARIABLES =X, Y, Z, I, J, K, U, V, W, T, Xi, FlagP, P 
ZONE F=POINT, I=12, J=12, K=12
0.000000	0.000000	0.000000	0	0	0	0.000000	0.000000	0.000000	-13.426091	0.000000	1.000000	0.000000
0.050000	0.000000	0.000000	1	0	0	0.000000	0.000000	0.000000	-13.426934	0.000000	1.000000	0.000000
0.150000	0.000000	0.000000	2	0	0	0.000000	0.000000	0.000000	-13.426934	0.000000	1.000000	0.000000
0.250000	0.000000	0.000000	3	0	0	0.000000	0.000000	0.000000	-13.426934	0.000000	1.000000	0.000000
0.350000	0.000000	0.000000	4	0	0	0.000000	0.000000	0.000000	-13.426934	0.000000	1.000000	0.000000
0.450000	0.000000	0.000000	5	0	0	0.000000	0.000000	0.000000	-13.426934	0.000000	1.000000	0.000000
0.550000	0.000000	0.000000	6	0	0	0.000000	0.000000	0.000000	-13.426934	0.000000	1.000000	0.000000
0.650000	0.000000	0.000000	7	0	0	0.000000	0.000000	0.000000	-13.426934	0.000000	1.000000	0.000000
0.750000	0.000000	0.000000	8	0	0	0.000000	0.000000	0.000000	-13.426934	0.000000	1.000000	0.000000
0.850000	0.000000	0.000000	9	0	0	0.000000	0.000000	0.000000	-13.426934	0.000000	1.000000	0.000000
0.950000	0.000000	0.000000	10	0	0	0.000000	0.000000	0.000000	-13.426934	0.000000	1.000000	0.000000
1.000000	0.000000	0.000000	11	0	0	0.000000	0.000000	0.000000	-13.425896	0.000000	1.000000	0.000000
0.000000	0.050000	0.000000	0	1	0	0.000000	0.000000	0.000000	-13.425669	0.000000	1.000000	0.000000
0.050000	0.050000	0.000000	1	1	0	0.000000	0.000000	0.000000	-12.529001	0.000000	1.000000	0.549982
0.150000	0.050000	0.000000	2	1	0	0.000000	0.000000	0.000000	-12.529001	0.000000	1.000000	0.550015
0.250000	0.050000	0.000000	3	1	0	0.000000	0.000000	0.000000	-12.529001	0.000000	1.000000	0.550017
0.350000	0.050000	0.000000	4	1	0	0.000000	0.000000	0.000000	-12.529001	0.000000	1.000000	0.549998
0.450000	0.050000	0.000000	5	1	0	0.000000	0.000000	0.000000	-12.529001	0.000000	1.000000	0.549969
0.550000	0.050000	0.000000	6	1	0	0.000000	0.000000	0.000000	-12.529001	0.000000	1.000000	0.549931
0.650000	0.050000	0.000000	7	1	0	0.000000	0.000000	0.000000	-12.529001	0.000000	1.000000	0.549894
0.750000	0.050000	0.000000	8	1	0	0.000000	0.000000	0.000000	-12.529001	0.000000	1.000000	0.549882
0.850000	0.050000	0.000000	9	1	0	0.000000	0.000000	0.000000	-12.529001	0.000000	1.000000	0.549891
0.950000	0.050000	0.000000	10	1	0	0.000000	0.000000	0.000000	-12.529001	0.000000	1.000000	0.549910
1.000000	0.050000	0.000000	11	1	0	0.000000	0.000000	0.000000	-13.425377	0.000000	1.000000	0.000000
0.000000	0.150000	0.000000	0	2	0	0.000000	0.000000	0.000000	-13.425669	0.000000	1.000000	0.000000
0.050000	0.150000	0.000000	1	2	0	0.000000	0.000000	0.000000	-12.529001	0.000000	1.000000	0.549760
0.150000	0.150000	0.000000	2	2	0	0.000000	0.000000	0.000000	-12.529001	0.000000	1.000000	0.549762
0.250000	0.150000	0.000000	3	2	0	0.000000	0.000000	0.000000	-12.529001	0.000000	1.000000	0.549753
0.350000	0.150000	0.000000	4	2	0	0.000000	0.000000	0.000000	-12.529001	0.000000	1.000000	0.549726
0.450000	0.150000	0.000000	5	2	0	0.000000	0.000000	0.000000	-12.529001	0.000000	1.000000	0.549691
0.550000	0.150000	0.000000	6	2	0	0.000000	0.000000	0.000000	-12.529001	0.000000	1.000000	0.549657
0.650000	0.150000	0.000000	7	2	0	0.000000	0.000000	0.000000	-12.529001	0.000000	1.000000	0.549630
0.750000	0.150000	0.000000	8	2	0	0.000000	0.000000	0.000000	-12.529001	0.000000	1.000000	0.549621
0.850000	0.150000	0.000000	9	2	0	0.000000	0.000000	0.000000	-12.529001	0.000000	1.000000	0.549633
0.950000	0.150000	0.000000	10	2	0	0.000000	0.000000	0.000000	-12.529001	0.000000	1.000000	0.549654
1.000000	0.150000	0.000000	11	2	0	0.000000	0.000000	0.000000	-13.425377	0.000000	1.000000	0.000000
0.000000	0.250000	0.000000	0	3	0	0.000000	0.000000	0.000000	-13.425669	0.000000	1.000000	0.000000
0.050000	0.250000	0.000000	1	3	0	0.000000	0.000000	0.000000	-12.529001	0.000000	1.000000	0.549496
0.150000	0.250000	0.000000	2	3	0	0.000000	0.000000	0.000000	-12.529001	0.000000	1.000000	0.549491
0.250000	0.250000	0.000000	3	3	0	0.000000	0.000000	0.000000	-12.529001	0.000000	1.000000	0.549478
0.350000	0.250000	0.000000	4	3	0	0.000000	0.000000	0.000000	-12.529001	0.000000	1.000000	0.549454
0.450000	0.250000	0.000000	5	3	0	0.000000	0.000000	0.000000	-12.529001	0.000000	1.000000	0.549428
0.550000	0.250000	0.000000	6	3	0	0.000000	0.000000	0.000000	-12.529001	0.000000	1.000000	0.549409
0.650000	0.250000	0.000000	7	3	0	0.000000	0.000000	0.000000	-12.529001	0.000000	1.000000	0.549402
0.750000	0.250000	0.000000	8	3	0	0.000000	0.000000	0.000000	-12.529001	0.000000	1.000000	0.549403
0.850000	0.250000	0.000000	9	3	0	0.000000	0.000000	0.000000	-12.529001	0.000000	1.000000	0.549416
0.950000	0.250000	0.000000	10	3	0	0.000000	0.000000	0.000000	-12.529001	0.000000	1.000000	0.549431
1.000000	0.250000	0.000000	11	3	0	0.000000	0.000000	0.000000	-13.425377	0.000000	1.000000	0.000000
0.000000	0.350000	0.000000	0	4	0	0.000000	0.000000	0.000000	-13.425669	0.000000	1.000000	0.000000
0.050000	0.350000	0.000000	1	4	0	0.000000	0.000000	0.000000	-12.529001	0.000000	1.000000	0.549289
0.150000	0.350000	0.000000	2	4	0	0.000000	0.000000	0.000000	-12.529001	0.000000	1.000000	0.549286
0.250000	0.350000	0.000000	3	4	0	0.000000	0.000000	0.000000	-12.529001	0.000000	1.000000	0.549279
0.350000	0.350000	0.000000	4	4	0	0.000000	0.000000	0.000000	-12.529001	0.000000	1.000000	0.549266
0.450000	0.350000	0.000000	5	4	0	0.000000	0.000000	0.000000	-12.529001	0.000000	1.000000	0.549255
0.550000	0.350000	0.000000	6	4	0	0.000000	0.000000	0.000000	-12.529001	0.000000	1.000000	0.549252
0.650000	0.350000	0.000000	7	4	0	0.000000	0.000000	0.000000	-12.529001	0.000000	1.000000	0.549259
0.750000	0.350000	0.000000	8	4	0	0.000000	0.000000	0.000000	-12.529001	0.000000	1.000000	0.549269
0.850000	0.350000	0.000000	9	4	0	0.000000	0.000000	0.000000	-12.529001	0.000000	1.000000	0.549283
0.950000	0.350000	0.000000	10	4	0	0.000000	0.000000	0.000000	-12.529001	0.000000	1.000000	0.549292
1.000000	0.350000	0.000000	11	4	0	0.000000	0.000000	0.000000	-13.425377	0.000000	1.000000	0.000000
0.000000	0.450000	0.000000	0	5	0	0.000000	0.000000	0.000000	-13.425669	0.000000	1.000000	0.000000
0.050000	0.450000	0.000000	1	5	0	0.000000	0.000000	0.000000	-12.529001	0.000000	1.000000	0.549211
0.150000	0.450000	0.000000	2	5	0	0.000000	0.000000	0.000000	-12.529001	0.000000	1.000000	0.549210
0.250000	0.450000	0.000000	3	5	0	0.000000	0.000000	0.000000	-12.529001	0.000000	1.000000	0.549205
0.350000	0.450000	0.000000	4	5	0	0.000000	0.000000	0.000000	-12.529001	0.000000	1.000000	0.549199
0.450000	0.450000	0.000000	5	5	0	0.000000	0.000000	0.000000	-12.529001	0.000000	1.000000	0.549196
0.550000	0.450000	0.000000	6	5	0	0.000000	0.000000	0.000000	-12.529001	0.000000	1.000000	0.549199
0.650000	0.450000	0.000000	7	5	0	0.000000	0.000000	0.000000	-12.529001	0.000000	1.000000	0.549210
0.750000	0.450000	0.000000	8	5	0	0.000000	0.000000	0.000000	-12.529001	0.000000	1.000000	0.549220
0.850000	0.450000	0.000000	9	5	0	0.000000	0.000000	0.000000	-12.529001	0.000000	1.000000	0.549230
0.950000	0.450000	0.000000	10	5	0	0.000000	0.000000	0.000000	-12.529001	0.000000	1.000000	0.549236
1.000000	0.450000	0.000000	11	5	0	0.000000	0.000000	0.000000	-13.425377	0.000000	1.000000	0.000000
0.000000	0.550000	0.000000	0	6	0	0.000000	0.000000	0.000000	-13.425669	0.000000	1.000000	0.000000
0.050000	0.550000	0.000000	1	6	0	0.000000	0.000000	0.000000	-12.529001	0.000000	1.000000	0.549302
0.150000	0.550000	0.000000	2	6	0	0.000000	0.000000	0.000000	-12.529001	0.000000	1.000000	0.549298
0.250000	0.550000	0.000000	3	6	0	0.000000	0.000000	0.000000	-12.529001	0.000000	1.000000	0.549285
0.350000	0.550000	0.000000	4	6	0	0.000000	0.000000	0.000000	-12.529001	0.000000	1.000000	0.549272
0.450000	0.550000	0.000000	5	6	0	0.000000	0.000000	0.000000	-12.529001	0.000000	1.000000	0.549268
0.550000	0.550000	0.000000	6	6	0	0.000000	0.000000	0.000000	-12.529001	0.000000	1.000000	0.549265
0.650000	0.550000	0.000000	7	6	0	0.000000	0.000000	0.000000	-12.529001	0.000000	1.000000	0.549263
0.750000	0.550000	0.000000	8	6	0	0.000000	0.000000	0.000000	-12.529001	0.000000	1.000000	0.549261
0.850000	0.550000	0.000000	9	6	0	0.000000	0.000000	0.000000	-12.529001	0.000000	1.000000	0.549261
0.950000	0.550000	0.000000	10	6	0	0.000000	0.000000	0.000000	-12.529001	0.000000	1.000000	0.549262
1.000000	0.550000	0.000000	11	6	0	0.000000	0.000000	0.000000	-13.425377	0.000000	1.000000	0.000000
0.000000	0.650000	0.000000	0	7	0	0.000000	0.000000	0.000000	-13.425669	0.000000	1.000000	0.000000
0.050000	0.650000	0.000000	1	7	0	0.000000	0.000000	0.000000	-12.529001	0.000000	1.000000	0.549602
0.150000	0.650000	0.000000	2	7	0	0.000000	0.000000	0.000000	-12.529001	0.000000	1.000000	0.549579
0.250000	0.650000	0.000000	3	7	0	0.000000	0.000000	0.000000	-12.529001	0.000000	1.000000	0.549548
0.350000	0.650000	0.000000	4	7	0	0.000000	0.000000	0.000000	-12.529001	0.000000	1.000000	0.549527
0.450000	0.650000	0.000000	5	7	0	0.000000	0.000000	0.000000	-12.529001	0.000000	1.000000	0.549510
0.550000	0.650000	0.000000	6	7	0	0.000000	0.000000	0.000000	-12.529001	0.000000	1.000000	0.549485
0.650000	0.650000	0.000000	7	7	0	0.000000	0.000000	0.000000	-12.529001	0.000000	1.000000	0.549447
0.750000	0.650000	0.000000	8	7	0	0.000000	0.000000	0.000000	-12.529001	0.000000	1.000000	0.549417
0.850000	0.650000	0.000000	9	7	0	0.000000	0.000000	0.000000	-12.529001	0.000000	1.000000	0.549395
0.950000	0.650000	0.000000	10	7	0	0.000000	0.000000	0.000000	-12.529001	0.000000	1.000000	0.549387
1.000000	0.650000	0.000000	11	7	0	0.000000	0.000000	0.000000	-13.425377	0.000000	1.000000	0.000000
0.000000	0.750000	0.000000	0	8	0	0.000000	0.000000	0.000000	-13.425669	0.000000	1.000000	0.000000
0.050000	0.750000	0.000000	1	8	0	0.000000	0.000000	0.000000	-12.529001	0.000000	1.000000	0.550162
0.150000	0.750000	0.000000	2	8	0	0.000000	0.000000	0.000000	-12.529001	0.000000	1.000000	0.550114
0.250000	0.750000	0.000000	3	8	0	0.000000	0.000000	0.000000	-12.529001	0.000000	1.000000	0.550059
0.350000	0.750000	0.000000	4	8	0	0.000000	0.000000	0.000000	-12.529001	0.000000	1.000000	0.550018
0.450000	0.750000	0.000000	5	8	0	0.000000	0.000000	0.000000	-12.529001	0.000000	1.000000	0.549972
0.550000	0.750000	0.000000	6	8	0	0.000000	0.000000	0.000000	-12.529001	0.000000	1.000000	0.549898
0.650000	0.750000	0.000000	7	8	0	0.000000	0.000000	0.000000	-12.529001	0.000000	1.000000	0.549802
0.750000	0.750000	0.000000	8	8	0	0.000000	0.000000	0.000000	-12.529001	0.000000	1.000000	0.549731
0.850000	0.750000	0.000000	9	8	0	0.000000	0.000000	0.000000	-12.529001	0.000000	1.000000	0.549680
0.950000	0.750000	0.000000	10	8	0	0.000000	0.000000	0.000000	-12.529001	0.000000	1.000000	0.549652
1.000000	0.750000	0.000000	11	8	0	0.000000	0.000000	0.000000	-13.425377	0.000000	1.000000	0.000000
0.000000	0.850000	0.000000	0	9	0	0.000000	0.000000	0.000000	-13.425669	0.000000	1.000000	0.000000
0.050000	0.850000	0.000000	1	9	0	0.000000	0.000000	0.000000	-12.529001	0.000000	1.000000	0.550972
0.150000	0.850000	0.000000	2	9	0	0.000000	0.000000	0.000000	-12.529001	0.000000	1.000000	0.550920
0.250000	0.850000	0.000000	3	9	0	0.000000	0.000000	0.000000	-12.529001	0.000000	1.000000	0.550858
0.350000	0.850000	0.000000	4	9	0	0.000000	0.000000	0.000000	-12.529001	0.000000	1.000000	0.550782
0.450000	0.850000	0.000000	5	9	0	0.000000	0.000000	0.000000	-12.529001	0.000000	1.000000	0.550672
0.550000	0.850000	0.000000	6	9	0	0.000000	0.000000	0.000000	-12.529001	0.000000	1.000000	0.550516
0.650000	0.850000	0.000000	7	9	0	0.000000	0.000000	0.000000	-12.529001	0.000000	1.000000	0.550349
0.750000	0.850000	0.000000	8	9	0	0.000000	0.000000	0.000000	-12.529001	0.000000	1.000000	0.550245
0.850000	0.850000	0.000000	9	9	0	0.000000	0.000000	0.000000	-12.529001	0.000000	1.000000	0.550180
0.950000	0.850000	0.000000	10	9	0	0.000000	0.000000	0.000000	-12.529001	0.000000	1.000000	0.550144
1.000000	0.850000	0.000000	11	9	0	0.000000	0.000000	0.000000	-13.425377	0.000000	1.000000	0.000000
0.000000	0.950000	0.000000	0	10	0	0.000000	0.000000	0.000000	-13.425669	0.000000	1.000000	0.000000
0.050000	0.950000	0.000000	1	10	0	0.000000	0.000000	0.000000	-12.529001	0.000000	1.000000	0.551067
0.150000	0.950000	0.000000	2	10	0	0.000000	0.000000	0.000000	-12.529001	0.000000	1.000000	0.551054
0.250000	0.950000	0.000000	3	10	0	0.000000	0.000000	0.000000	-12.529001	0.000000	1.000000	0.551003
0.350000	0.950000	0.000000	4	10	0	0.000000	0.000000	0.000000	-12.529001	0.000000	1.000000	0.550924
0.450000	0.950000	0.000000	5	10	0	0.000000	0.000000	0.000000	-12.529001	0.000000	1.000000	0.550794
0.550000	0.950000	0.000000	6	10	0	0.000000	0.000000	0.000000	-12.529001	0.000000	1.000000	0.550610
0.650000	0.950000	0.000000	7	10	0	0.000000	0.000000	0.000000	-12.529001	0.000000	1.000000	0.550424
0.750000	0.950000	0.000000	8	10	0	0.000000	0.000000	0.000000	-12.529001	0.000000	1.000000	0.550326
0.850000	0.950000	0.000000	9	10	0	0.000000	0.000000	0.000000	-12.529001	0.000000	1.000000	0.550280
0.950000	0.950000	0.000000	10	10	0	0.000000	0.000000	0.000000	-12.529001	0.000000	1.000000	0.550231
1.000000	0.950000	0.000000	11	10	0	0.000000	0.000000	0.000000	-13.425377	0.000000	1.000000	0.000000
0.000000	1.000000	0.000000	0	11	0	0.000000	0.000000	0.000000	-13.425267	0.000000	1.000000	0.000000
0.050000	1.000000	0.000000	1	11	0	0.000000	0.000000	0.000000	-13.424462	0.000000	1.000000	0.000000
0.150000	1.000000	0.000000	2	11	0	0.000000	0.000000	0.000000	-13.424462	0.000000	1.000000	0.000000
0.250000	1.000000	0.000000	3	11	0	0.000000	0.000000	0.000000	-13.424462	0.000000	1.000000	0.000000
0.350000	1.000000	0.000000	4	11	0	0.000000	0.000000	0.000000	-13.424462	0.000000	1.000000	0.000000
0.450000	1.000000	0.000000	5	11	0	0.000000	0.000000	0.000000	-13.424462	0.000000	1.000000	0.000000
0.550000	1.000000	0.000000	6	11	0	0.000000	0.000000	0.000000	-13.424462	0.000000	1.000000	0.000000
0.650000	1.000000	0.000000	7	11	0	0.000000	0.000000	0.000000	-13.424462	0.000000	1.000000	0.000000
0.750000	1.000000	0.000000	8	11	0	0.000000	0.000000	0.000000	-13.424462	0.000000	1.000000	0.000000
0.850000	1.000000	0.000000	9	11	0	0.000000	0.000000	0.000000	-13.424462	0.000000	1.000000	0.000000
0.950000	1.000000	0.000000	10	11	0	0.000000	0.000000	0.000000	-13.424462	0.000000	1.000000	0.000000
1.000000	1.000000	0.000000	11	11	0	0.000000	0.000000	0.000000	-13.425072	0.000000	1.000000	0.000000
0.000000	0.000000	0.050000	0	0	1	0.000000	0.000000	0.000000	-13.425669	0.000000	1.000000	0.000000
0.050000	0.000000	0.050000	1	0	1	0.000000	0.000000	0.000000	-13.426934	0.000000	1.000000	0.549982
0.150000	0.000000	0.050000	2	0	1	0.000000	0.000000	0.000000	-13.426934	0.000000	1.000000	0.550015
0.250000	0.000000	0.050000	3	0	1	0.000000	0.000000	0.000000	-13.426934	0.000000	1.000000	0.550017
0.350000	0.000000	0.050000	4	0	1	0.000000	0.000000	0.000000	-13.426934	0.000000	1.000000	0.549998
0.450000	0.000000	0.050000	5	0	1	0.000000	0.000000	0.000000	-13.426934	0.000000	1.000000	0.549969
0.550000	0.000000	0.050000	6	0	1	0.000000	0.000000	0.000000	-13.426934	0.000000	1.000000	0.549931
0.650000	0.000000	0.050000	7	0	1	0.000000	0.000000	0.000000	-13.426934	0.000000	1.000000	0.549894
0.750000	0.000000	0.050000	8	0	1	0.000000	0.000000	0.000000	-13.426934	0.000000	1.000000	0.549882
0.850000	0.000000	0.050000	9	0	1	0.000000	0.000000	0.000000	-13.426934	0.000000	1.000000	0.549891
0.950000	0.000000	0.050000	10	0	1	0.000000	0.000000	0.000000	-13.426934	0.000000	1.000000	0.549910
1.000000	0.000000	0.050000	11	0	1	0.000000	0.000000	0.000000	-13.425377	0.000000	1.000000	0.000000
0.000000	0.050000	0.050000	0	1	1	0.000000	0.000000	0.000000	-13.425669	0.000000	1.000000	0.549982
0.050000	0.050000	0.050000	1	1	1	-0.002208	-0.009743	0.011951	-13.298365	0.000000	-1.000000	0.549982
0.150000	0.050000	0.050000	2	1	1	-0.004788	-0.011698	0.012070	-13.288585	0.000000	-1.000000	0.550015
0.250000	0.050000	0.050000	3	1	1	-0.005528	-0.011759	0.012127	-13.290933	0.000000	-1.000000	0.550017
0.350000	0.050000	0.050000	4	1	1	-0.005993	-0.011921	0.012018	-13.296525	0.000000	-1.000000	0.549998
0.450000	0.050000	0.050000	5	1	1	-0.005770	-0.012141	0.011822	-13.303095	0.000000	-1.000000	0.549969
0.550000	0.050000	0.050000	6	1	1	-0.004924	-0.012131	0.011605	-13.309159	0.000000	-1.000000	0.549931
0.650000	0.050000	0.050000	7	1	1	-0.004070	-0.011925	0.011596	-13.313428	0.000000	-1.000000	0.549894
0.750000	0.050000	0.050000	8	1	1	-0.003325	-0.011973	0.011556	-13.315584	0.000000	-1.000000	0.549882
0.850000	0.050000	0.050000	9	1	1	-0.002214	-0.011738	0.011045	-13.317964	0.000000	-1.000000	0.549891
0.950000	0.050000	0.050000	10	1	1	-0.000761	-0.011665	0.010905	-13.324794	0.000000	-1.000000	0.549910
1.000000	0.050000	0.050000	11	1	1	0.000000	0.000000	0.000000	-13.425377	0.000000	1.000000	0.549910
0.000000	0.150000	0.050000	0	2	1	0.000000	0.000000	0.000000	-13.425669	0.000000	1.000000	0.549760
0.050000	0.150000	0.050000	1	2	1	-0.000681	-0.026260	0.007455	-13.325828	0.000000	-1.000000	0.549760
0.150000	0.150000	0.050000	2	2	1	-0.002491	-0.029916	0.007649	-13.314944	0.000000	-1.000000	0.549762
0.250000	0.150000	0.050000	3	2	1	-0.004302	-0.030158	0.007322	-13.317035	0.000000	-1.000000	0.549753
0.350000	0.150000	0.050000	4	2	1	-0.005121	-0.030369	0.006665	-13.321289	0.000000	-1.000000	0.549726
0.450000	0.150000	0.050000	5	2	1	-0.005131	-0.030640	0.006230	-13.324836	0.000000	-1.000000	0.549691
0.550000	0.150000	0.050000	6	2	1	-0.004488	-0.030361	0.005584	-13.328053	0.000000	-1.000000	0.549657
0.650000	0.150000	0.050000	7	2	1	-0.003083	-0.029524	0.004784	-13.330792	0.000000	-1.000000	0.549630
0.750000	0.150000	0.050000	8	2	1	-0.001425	-0.029380	0.004666	-13.331970	0.000000	-1.000000	0.549621
0.850000	0.150000	0.050000	9	2	1	0.000286	-0.028809	0.004389	-13.333589	0.000000	-1.000000	0.549633
0.950000	0.150000	0.050000	10	2	1	0.000615	-0.028697	0.005982	-13.339337	0.000000	-1.000000	0.549654
1.000000	0.150000	0.050000	11	2	1	0.000000	0.000000	0.000000	-13.425377	0.000000	1.000000	0.549654
0.000000	0.250000	0.050000	0	3	1	0.000000	0.000000	0.000000	-13.425669	0.000000	1.000000	0.549496
0.050000	0.250000	0.050000	1	3	1	-0.000267	-0.038314	0.005547	-13.342952	0.000000	-1.000000	0.549496
0.150000	0.250000	0.050000	2	3	1	-0.001672	-0.041255	0.005958	-13.331022	0.000000	-1.000000	0.549491
0.250000	0.250000	0.050000	3	3	1	-0.003649	-0.041515	0.005556	-13.332487	0.000000	-1.000000	0.549478
0.350000	0.250000	0.050000	4	3	1	-0.004543	-0.041339	0.004498	-13.335938	0.000000	-1.000000	0.549454
0.450000	0.250000	0.050000	5	3	1	-0.004384	-0.041146	0.003933	-13.337681	0.000000	-1.000000	0.549428
0.550000	0.250000	0.050000	6	3	1	-0.003646	-0.040316	0.003334	-13.338701	0.000000	-1.000000	0.549409
0.650000	0.250000	0.050000	7	3	1	-0.002151	-0.038686	0.002515	-13.339959	0.000000	-1.000000	0.549402
0.750000	0.250000	0.050000	8	3	1	-0.000300	-0.037975	0.002283	-13.340486	0.000000	-1.000000	0.549403
0.850000	0.250000	0.050000	9	3	1	0.001577	-0.037173	0.002035	-13.342053	0.000000	-1.000000	0.549416
0.950000	0.250000	0.050000	10	3	1	0.001287	-0.037203	0.004426	-13.346863	0.000000	-1.000000	0.549431
1.000000	0.250000	0.050000	11	3	1	0.000000	0.000000	0.000000	-13.425377	0.000000	1.000000	0.549431
0.000000	0.350000	0.050000	0	4	1	0.000000	0.000000	0.000000	-13.425669	0.000000	1.000000	0.549289
0.050000	0.350000	0.050000	1	4	1	-0.000080	-0.047206	0.003691	-13.355894	0.000000	-1.000000	0.549289
0.150000	0.350000	0.050000	2	4	1	-0.001185	-0.049323	0.004274	-13.343717	0.000000	-1.000000	0.549286
0.250000	0.350000	0.050000	3	4	1	-0.003092	-0.049321	0.003969	-13.344704	0.000000	-1.000000	0.549279
0.350000	0.350000	0.050000	4	4	1	-0.003854	-0.048549	0.002649	-13.347861	0.000000	-1.000000	0.549266
0.450000	0.350000	0.050000	5	4	1	-0.003257	-0.047735	0.001964	-13.348580	0.000000	-1.000000	0.549255
0.550000	0.350000	0.050000	6	4	1	-0.002135	-0.046367	0.001550	-13.347778	0.000000	-1.000000	0.549252
0.650000	0.350000	0.050000	7	4	1	-0.000681	-0.044180	0.001197	-13.347311	0.000000	-1.000000	0.549259
0.750000	0.350000	0.050000	8	4	1	0.000923	-0.042867	0.000937	-13.347260	0.000000	-1.000000	0.549269
0.850000	0.350000	0.050000	9	4	1	0.002594	-0.041799	0.000716	-13.348828	0.000000	-1.000000	0.549283
0.950000	0.350000	0.050000	10	4	1	0.001736	-0.042015	0.003408	-13.352977	0.000000	-1.000000	0.549292
1.000000	0.350000	0.050000	11	4	1	0.000000	0.000000	0.000000	-13.425377	0.000000	1.000000	0.549292
0.000000	0.450000	0.050000	0	5	1	0.000000	0.000000	0.000000	-13.425669	0.000000	1.000000	0.549211
0.050000	0.450000	0.050000	1	5	1	0.000090	-0.052718	0.001811	-13.366845	0.000000	-1.000000	0.549211
0.150000	0.450000	0.050000	2	5	1	-0.000674	-0.054226	0.002510	-13.354865	0.000000	-1.000000	0.549210
0.250000	0.450000	0.050000	3	5	1	-0.002365	-0.053967	0.002394	-13.355506	0.000000	-1.000000	0.549205
0.350000	0.450000	0.050000	4	5	1	-0.002882	-0.052621	0.000986	-13.358622	0.000000	-1.000000	0.549199
0.450000	0.450000	0.050000	5	5	1	-0.001757	-0.051207	0.000223	-13.358802	0.000000	-1.000000	0.549196
0.550000	0.450000	0.050000	6	5	1	-0.000098	-0.049411	-0.000001	-13.356569	0.000000	-1.000000	0.549199
0.650000	0.450000	0.050000	7	5	1	0.001278	-0.047044	0.000333	-13.354129	0.000000	-1.000000	0.549210
0.750000	0.450000	0.050000	8	5	1	0.002336	-0.045290	0.000159	-13.353462	0.000000	-1.000000	0.549220
0.850000	0.450000	0.050000	9	5	1	0.003493	-0.043989	-0.000027	-13.355053	0.000000	-1.000000	0.549230
0.950000	0.450000	0.050000	10	5	1	0.002058	-0.044346	0.002717	-13.358708	0.000000	-1.000000	0.549236
1.000000	0.450000	0.050000	11	5	1	0.000000	0.000000	0.000000	-13.425377	0.000000	1.000000	0.549236
0.000000	0.550000	0.050000	0	6	1	0.000000	0.000000	0.000000	-13.425669	0.000000	1.000000	0.549302
0.050000	0.550000	0.050000	1	6	1	0.000268	-0.054800	-0.000087	-13.376874	0.000000	-1.000000	0.549302
0.150000	0.550000	0.050000	2	6	1	-0.000130	-0.055905	0.000691	-13.365353	0.000000	-1.000000	0.549298
0.250000	0.550000	0.050000	3	6	1	-0.001511	-0.055556	0.000744	-13.365723	0.000000	-1.000000	0.549285
0.350000	0.550000	0.050000	4	6	1	-0.001710	-0.053820	-0.000620	-13.368874	0.000000	-1.000000	0.549272
0.450000	0.550000	0.050000	5	6	1	-0.000059	-0.051983	-0.001389	-13.368732	0.000000	-1.000000	0.549268
0.550000	0.550000	0.050000	6	6	1	0.002186	-0.049907	-0.001464	-13.365430	0.000000	-1.000000	0.549265
0.650000	0.550000	0.050000	7	6	1	0.003472	-0.047637	-0.000440	-13.360938	0.000000	-1.000000	0.549263
0.750000	0.550000	0.050000	8	6	1	0.003807	-0.045724	-0.000417	-13.359507	0.000000	-1.000000	0.549261
0.850000	0.550000	0.050000	9	6	1	0.004280	-0.044342	-0.000559	-13.361141	0.000000	-1.000000	0.549261
0.950000	0.550000	0.050000	10	6	1	0.002298	-0.044811	0.002104	-13.364471	0.000000	-1.000000	0.549262
1.000000	0.550000	0.050000	11	6	1	0.000000	0.000000	0.000000	-13.425377	0.000000	1.000000	0.549262
0.000000	0.650000	0.050000	0	7	1	0.000000	0.000000	0.000000	-13.425669	0.000000	1.000000	0.549602
0.050000	0.650000	0.050000	1	7	1	0.000432	-0.053287	-0.002126	-13.386700	0.000000	-1.000000	0.549602
0.150000	0.650000	0.050000	2	7	1	0.000347	-0.054130	-0.001282	-13.375813	0.000000	-1.000000	0.549579
0.250000	0.650000	0.050000	3	7	1	-0.000718	-0.053866	-0.001172	-13.375925	0.000000	-1.000000	0.549548
0.350000	0.650000	0.050000	4	7	1	-0.000514	-0.052055	-0.002413	-13.378713	0.000000	-1.000000	0.549527
0.450000	0.650000	0.050000	5	7	1	0.001677	-0.050030	-0.003139	-13.377880	0.000000	-1.000000	0.549510
0.550000	0.650000	0.050000	6	7	1	0.004437	-0.047811	-0.003062	-13.373704	0.000000	-1.000000	0.549485
0.650000	0.650000	0.050000	7	7	1	0.005565	-0.045759	-0.001420	-13.367678	0.000000	-1.000000	0.549447
0.750000	0.650000	0.050000	8	7	1	0.005089	-0.044032	-0.001151	-13.365485	0.000000	-1.000000	0.549417
0.850000	0.650000	0.050000	9	7	1	0.004830	-0.042832	-0.001291	-13.367277	0.000000	-1.000000	0.549395
0.950000	0.650000	0.050000	10	7	1	0.002427	-0.043414	0.001223	-13.370552	0.000000	-1.000000	0.549387
1.000000	0.650000	0.050000	11	7	1	0.000000	0.000000	0.000000	-13.425377	0.000000	1.000000	0.549387
0.000000	0.750000	0.050000	0	8	1	0.000000	0.000000	0.000000	-13.425669	0.000000	1.000000	0.550162
0.050000	0.750000	0.050000	1	8	1	0.000406	-0.047347	-0.004652	-13.395826	0.000000	-1.000000	0.550162
0.150000	0.750000	0.050000	2	8	1	0.000452	-0.048158	-0.003813	-13.386085	0.000000	-1.000000	0.550114
0.250000	0.750000	0.050000	3	8	1	-0.000173	-0.048108	-0.003774	-13.386058	0.000000	-1.000000	0.550059
0.350000	0.750000	0.050000	4	8	1	0.000589	-0.046473	-0.004947	-13.388086	0.000000	-1.000000	0.550018
0.450000	0.750000	0.050000	5	8	1	0.003293	-0.044451	-0.005558	-13.386585	0.000000	-1.000000	0.549972
0.550000	0.750000	0.050000	6	8	1	0.006361	-0.042268	-0.005192	-13.381601	0.000000	-1.000000	0.549898
0.650000	0.750000	0.050000	7	8	1	0.007133	-0.040584	-0.002944	-13.374299	0.000000	-1.000000	0.549802
0.750000	0.750000	0.050000	8	8	1	0.005787	-0.039381	-0.002491	-13.371560	0.000000	-1.000000	0.549731
0.850000	0.750000	0.050000	9	8	1	0.004907	-0.038662	-0.002750	-13.373732	0.000000	-1.000000	0.549680
0.950000	0.750000	0.050000	10	8	1	0.002377	-0.039358	-0.000475	-13.377276	0.000000	-1.000000	0.549652
1.000000	0.750000	0.050000	11	8	1	0.000000	0.000000	0.000000	-13.425377	0.000000	1.000000	0.549652
0.000000	0.850000	0.050000	0	9	1	0.000000	0.000000	0.000000	-13.425669	0.000000	1.000000	0.550972
0.050000	0.850000	0.050000	1	9	1	0.000013	-0.035044	-0.008070	-13.404488	0.000000	-1.000000	0.550972
0.150000	0.850000	0.050000	2	9	1	-0.000105	-0.036131	-0.007723	-13.396169	0.000000	-1.000000	0.550920
0.250000	0.850000	0.050000	3	9	1	-0.000094	-0.036338	-0.007873	-13.396091	0.000000	-1.000000	0.550858
0.350000	0.850000	0.050000	4	9	1	0.001363	-0.034991	-0.008878	-13.397399	0.000000	-1.000000	0.550782
0.450000	0.850000	0.050000	5	9	1	0.004482	-0.033244	-0.009129	-13.395141	0.000000	-1.000000	0.550672
0.550000	0.850000	0.050000	6	9	1	0.007517	-0.031452	-0.008246	-13.389218	0.000000	-1.000000	0.550516
0.650000	0.850000	0.050000	7	9	1	0.007675	-0.030395	-0.005551	-13.380800	0.000000	-1.000000	0.550349
0.750000	0.850000	0.050000	8	9	1	0.005504	-0.029903	-0.005163	-13.377873	0.000000	-1.000000	0.550245
0.850000	0.850000	0.050000	9	9	1	0.004286	-0.029796	-0.005841	-13.380722	0.000000	-1.000000	0.550180
0.950000	0.850000	0.050000	10	9	1	0.002081	-0.030527	-0.003897	-13.384887	0.000000	-1.000000	0.550144
1.000000	0.850000	0.050000	11	9	1	0.000000	0.000000	0.000000	-13.425377	0.000000	1.000000	0.550144
0.000000	0.950000	0.050000	0	10	1	0.000000	0.000000	0.000000	-13.425669	0.000000	1.000000	0.551067
0.050000	0.950000	0.050000	1	10	1	-0.000707	-0.013493	-0.012786	-13.411956	0.000000	-1.000000	0.551067
0.150000	0.950000	0.050000	2	10	1	-0.001191	-0.014139	-0.014363	-13.405958	0.000000	-1.000000	0.551054
0.250000	0.950000	0.050000	3	10	1	-0.000569	-0.014303	-0.014701	-13.405743	0.000000	-1.000000	0.551003
0.350000	0.950000	0.050000	4	10	1	0.001251	-0.013715	-0.015137	-13.406227	0.000000	-1.000000	0.550924
0.450000	0.950000	0.050000	5	10	1	0.004407	-0.012959	-0.014693	-13.403072	0.000000	-1.000000	0.550794
0.550000	0.950000	0.050000	6	10	1	0.007122	-0.012220	-0.013199	-13.396183	0.000000	-1.000000	0.550610
0.650000	0.950000	0.050000	7	10	1	0.006806	-0.011884	-0.010589	-13.387075	0.000000	-1.000000	0.550424
0.750000	0.950000	0.050000	8	10	1	0.004290	-0.011822	-0.010602	-13.384412	0.000000	-1.000000	0.550326
0.850000	0.950000	0.050000	9	10	1	0.003291	-0.011916	-0.012138	-13.388243	0.000000	-1.000000	0.550280
0.950000	0.950000	0.050000	10	10	1	0.001757	-0.012274	-0.010518	-13.392471	0.000000	-1.000000	0.550231
1.000000	0.950000	0.050000	11	10	1	0.000000	0.000000	0.000000	-13.425377	0.000000	1.000000	0.550231
0.000000	1.000000	0.050000	0	11	1	0.000000	0.000000	0.000000	-13.425669	0.000000	1.000000	0.000000
0.050000	1.000000	0.050000	1	11	1	0.000000	0.000000	0.000000	-13.424462	0.000000	1.000000	0.551067
0.150000	1.000000	0.050000	2	11	1	0.000000	0.000000	0.000000	-13.424462	0.000000	1.000000	0.551054
0.250000	1.000000	0.050000	3	11	1	0.000000	0.000000	0.000000	-13.424462	0.000000	1.000000	0.551003
0.350000	1.000000	0.050000	4	11	1	0.000000	0.000000	0.000000	-13.424462	0.000000	1.000000	0.550924
0.450000	1.000000	0.050000	5	11	1	0.000000	0.000000	0.000000	-13.424462	0.000000	1.000000	0.550794
0.550000	1.000000	0.050000	6	11	1	0.000000	0.000000	0.000000	-13.424462	0.000000	1.000000	0.550610
0.650000	1.000000	0.050000	7	11	1	0.000000	0.000000	0.000000	-13.424462	0.000000	1.000000	0.550424
0.750000	1.000000	0.050000	8	11	1	0.000000	0.000000	0.000000	-13.424462	0.000000	1.000000	0.550326
0.850000	1.000000	0.050000	9	11	1	0.000000	0.000000	0.000000	-13.424462	0.000000	1.000000	0.550280
0.950000	1.000000	0.050000	10	11	1	0.000000	0.000000	0.000000	-13.424462	0.000000	1.000000	0.550231
1.000000	1.000000	0.050000	11	11	1	0.000000	0.000000	0.000000	-13.425377	0.000000	1.000000	0.000000
0.000000	0.000000	0.150000	0	0	2	0.000000	0.000000	0.000000	-13.425669	0.000000	1.000000	0.000000
0.050000	0.000000	0.150000	1	0	2	0.000000	0.000000	0.000000	-13.426934	0.000000	1.000000	0.432362
0.150000	0.000000	0.150000	2	0	2	0.000000	0.000000	0.000000	-13.426934	0.000000	1.000000	0.432388
0.250000	0.000000	0.150000	3	0	2	0.000000	0.000000	0.000000	-13.426934	0.000000	1.000000	0.432379
0.350000	0.000000	0.150000	4	0	2	0.000000	0.000000	0.000000	-13.426934	0.000000	1.000000	0.432334
0.450000	0.000000	0.150000	5	0	2	0.000000	0.000000	0.000000	-13.426934	0.000000	1.000000	0.432276
0.550000	0.000000	0.150000	6	0	2	0.000000	0.000000	0.000000	-13.426934	0.000000	1.000000	0.432212
0.650000	0.000000	0.150000	7	0	2	0.000000	0.000000	0.000000	-13.426934	0.000000	1.000000	0.432158
0.750000	0.000000	0.150000	8	0	2	0.000000	0.000000	0.000000	-13.426934	0.000000	1.000000	0.432142
0.850000	0.000000	0.150000	9	0	2	0.000000	0.000000	0.000000	-13.426934	0.000000	1.000000	0.432157
0.950000	0.000000	0.150000	10	0	2	0.000000	0.000000	0.000000	-13.426934	0.000000	1.000000	0.432210
1.000000	0.000000	0.150000	11	0	2	0.000000	0.000000	0.000000	-13.425377	0.000000	1.000000	0.000000