TITLE = "dt=0.100000s, t=1860.000000s, nu=0.000016, Lx=1.000000, Ly=1.000000, Lz=1.000000, Nx=12, Ny=12, Nz=12 "
VARIABLES =X, Y, Z, I, J, K, U, V, W, T, Xi, FlagP, P 
ZONE F=POINT, I=12, J=12, K=12
0.000000	0.000000	0.000000	0	0	0	0.000000	0.000000	0.000000	10.001673	0.000000	1.000000	0.000000
0.050000	0.000000	0.000000	1	0	0	0.000000	0.000000	0.000000	10.001673	0.000000	1.000000	0.000000
0.150000	0.000000	0.000000	2	0	0	0.000000	0.000000	0.000000	10.001673	0.000000	1.000000	0.000000
0.250000	0.000000	0.000000	3	0	0	0.000000	0.000000	0.000000	10.001673	0.000000	1.000000	0.000000
0.350000	0.000000	0.000000	4	0	0	0.000000	0.000000	0.000000	10.001673	0.000000	1.000000	0.000000
0.450000	0.000000	0.000000	5	0	0	0.000000	0.000000	0.000000	10.001673	0.000000	1.000000	0.000000
0.550000	0.000000	0.000000	6	0	0	0.000000	0.000000	0.000000	10.001673	0.000000	1.000000	0.000000
0.650000	0.000000	0.000000	7	0	0	0.000000	0.000000	0.000000	10.001673	0.000000	1.000000	0.000000
0.750000	0.000000	0.000000	8	0	0	0.000000	0.000000	0.000000	10.001673	0.000000	1.000000	0.000000
0.850000	0.000000	0.000000	9	0	0	0.000000	0.000000	0.000000	10.001673	0.000000	1.000000	0.000000
0.950000	0.000000	0.000000	10	0	0	0.000000	0.000000	0.000000	10.001673	0.000000	1.000000	0.000000
1.000000	0.000000	0.000000	11	0	0	0.000000	0.000000	0.000000	29.995060	0.000000	1.000000	0.000000
0.000000	0.050000	0.000000	0	1	0	0.000000	0.000000	0.000000	10.001673	0.000000	1.000000	0.000000
0.050000	0.050000	0.000000	1	1	0	0.000000	0.000000	0.000000	10.001703	0.000000	1.000000	0.093380
0.150000	0.050000	0.000000	2	1	0	0.000000	0.000000	0.000000	10.001703	0.000000	1.000000	0.093406
0.250000	0.050000	0.000000	3	1	0	0.000000	0.000000	0.000000	10.001703	0.000000	1.000000	0.093390
0.350000	0.050000	0.000000	4	1	0	0.000000	0.000000	0.000000	10.001703	0.000000	1.000000	0.093338
0.450000	0.050000	0.000000	5	1	0	0.000000	0.000000	0.000000	10.001703	0.000000	1.000000	0.093265
0.550000	0.050000	0.000000	6	1	0	0.000000	0.000000	0.000000	10.001703	0.000000	1.000000	0.093168
0.650000	0.050000	0.000000	7	1	0	0.000000	0.000000	0.000000	10.001703	0.000000	1.000000	0.093036
0.750000	0.050000	0.000000	8	1	0	0.000000	0.000000	0.000000	10.001703	0.000000	1.000000	0.092840
0.850000	0.050000	0.000000	9	1	0	0.000000	0.000000	0.000000	10.001703	0.000000	1.000000	0.092499
0.950000	0.050000	0.000000	10	1	0	0.000000	0.000000	0.000000	10.001703	0.000000	1.000000	0.092069
1.000000	0.050000	0.000000	11	1	0	0.000000	0.000000	0.000000	39.991753	0.000000	1.000000	0.000000
0.000000	0.150000	0.000000	0	2	0	0.000000	0.000000	0.000000	10.001673	0.000000	1.000000	0.000000
0.050000	0.150000	0.000000	1	2	0	0.000000	0.000000	0.000000	10.001703	0.000000	1.000000	0.093426
0.150000	0.150000	0.000000	2	2	0	0.000000	0.000000	0.000000	10.001703	0.000000	1.000000	0.093434
0.250000	0.150000	0.000000	3	2	0	0.000000	0.000000	0.000000	10.001703	0.000000	1.000000	0.093407
0.350000	0.150000	0.000000	4	2	0	0.000000	0.000000	0.000000	10.001703	0.000000	1.000000	0.093353
0.450000	0.150000	0.000000	5	2	0	0.000000	0.000000	0.000000	10.001703	0.000000	1.000000	0.093280
0.550000	0.150000	0.000000	6	2	0	0.000000	0.000000	0.000000	10.001703	0.000000	1.000000	0.093184
0.650000	0.150000	0.000000	7	2	0	0.000000	0.000000	0.000000	10.001703	0.000000	1.000000	0.093054
0.750000	0.150000	0.000000	8	2	0	0.000000	0.000000	0.000000	10.001703	0.000000	1.000000	0.092867
0.850000	0.150000	0.000000	9	2	0	0.000000	0.000000	0.000000	10.001703	0.000000	1.000000	0.092569
0.950000	0.150000	0.000000	10	2	0	0.000000	0.000000	0.000000	10.001703	0.000000	1.000000	0.092194
1.000000	0.150000	0.000000	11	2	0	0.000000	0.000000	0.000000	39.991753	0.000000	1.000000	0.000000
0.000000	0.250000	0.000000	0	3	0	0.000000	0.000000	0.000000	10.001673	0.000000	1.000000	0.000000
0.050000	0.250000	0.000000	1	3	0	0.000000	0.000000	0.000000	10.001703	0.000000	1.000000	0.093466
0.150000	0.250000	0.000000	2	3	0	0.000000	0.000000	0.000000	10.001703	0.000000	1.000000	0.093466
0.250000	0.250000	0.000000	3	3	0	0.000000	0.000000	0.000000	10.001703	0.000000	1.000000	0.093426
0.350000	0.250000	0.000000	4	3	0	0.000000	0.000000	0.000000	10.001703	0.000000	1.000000	0.093369
0.450000	0.250000	0.000000	5	3	0	0.000000	0.000000	0.000000	10.001703	0.000000	1.000000	0.093296
0.550000	0.250000	0.000000	6	3	0	0.000000	0.000000	0.000000	10.001703	0.000000	1.000000	0.093201
0.650000	0.250000	0.000000	7	3	0	0.000000	0.000000	0.000000	10.001703	0.000000	1.000000	0.093077
0.750000	0.250000	0.000000	8	3	0	0.000000	0.000000	0.000000	10.001703	0.000000	1.000000	0.092903
0.850000	0.250000	0.000000	9	3	0	0.000000	0.000000	0.000000	10.001703	0.000000	1.000000	0.092634
0.950000	0.250000	0.000000	10	3	0	0.000000	0.000000	0.000000	10.001703	0.000000	1.000000	0.092303
1.000000	0.250000	0.000000	11	3	0	0.000000	0.000000	0.000000	39.991753	0.000000	1.000000	0.000000
0.000000	0.350000	0.000000	0	4	0	0.000000	0.000000	0.000000	10.001673	0.000000	1.000000	0.000000
0.050000	0.350000	0.000000	1	4	0	0.000000	0.000000	0.000000	10.001703	0.000000	1.000000	0.093494
0.150000	0.350000	0.000000	2	4	0	0.000000	0.000000	0.000000	10.001703	0.000000	1.000000	0.093489
0.250000	0.350000	0.000000	3	4	0	0.000000	0.000000	0.000000	10.001703	0.000000	1.000000	0.093440
0.350000	0.350000	0.000000	4	4	0	0.000000	0.000000	0.000000	10.001703	0.000000	1.000000	0.093383
0.450000	0.350000	0.000000	5	4	0	0.000000	0.000000	0.000000	10.001703	0.000000	1.000000	0.093309
0.550000	0.350000	0.000000	6	4	0	0.000000	0.000000	0.000000	10.001703	0.000000	1.000000	0.093216
0.650000	0.350000	0.000000	7	4	0	0.000000	0.000000	0.000000	10.001703	0.000000	1.000000	0.093095
0.750000	0.350000	0.000000	8	4	0	0.000000	0.000000	0.000000	10.001703	0.000000	1.000000	0.092931
0.850000	0.350000	0.000000	9	4	0	0.000000	0.000000	0.000000	10.001703	0.000000	1.000000	0.092686
0.950000	0.350000	0.000000	10	4	0	0.000000	0.000000	0.000000	10.001703	0.000000	1.000000	0.092390
1.000000	0.350000	0.000000	11	4	0	0.000000	0.000000	0.000000	39.991753	0.000000	1.000000	0.000000
0.000000	0.450000	0.000000	0	5	0	0.000000	0.000000	0.000000	10.001673	0.000000	1.000000	0.000000
0.050000	0.450000	0.000000	1	5	0	0.000000	0.000000	0.000000	10.001703	0.000000	1.000000	0.093498
0.150000	0.450000	0.000000	2	5	0	0.000000	0.000000	0.000000	10.001703	0.000000	1.000000	0.093496
0.250000	0.450000	0.000000	3	5	0	0.000000	0.000000	0.000000	10.001703	0.000000	1.000000	0.093446
0.350000	0.450000	0.000000	4	5	0	0.000000	0.000000	0.000000	10.001703	0.000000	1.000000	0.093390
0.450000	0.450000	0.000000	5	5	0	0.000000	0.000000	0.000000	10.001703	0.000000	1.000000	0.093317
0.550000	0.450000	0.000000	6	5	0	0.000000	0.000000	0.000000	10.001703	0.000000	1.000000	0.093225
0.650000	0.450000	0.000000	7	5	0	0.000000	0.000000	0.000000	10.001703	0.000000	1.000000	0.093106
0.750000	0.450000	0.000000	8	5	0	0.000000	0.000000	0.000000	10.001703	0.000000	1.000000	0.092950
0.850000	0.450000	0.000000	9	5	0	0.000000	0.000000	0.000000	10.001703	0.000000	1.000000	0.092718
0.950000	0.450000	0.000000	10	5	0	0.000000	0.000000	0.000000	10.001703	0.000000	1.000000	0.092442
1.000000	0.450000	0.000000	11	5	0	0.000000	0.000000	0.000000	39.991753	0.000000	1.000000	0.000000
0.000000	0.550000	0.000000	0	6	0	0.000000	0.000000	0.000000	10.001673	0.000000	1.000000	0.000000
0.050000	0.550000	0.000000	1	6	0	0.000000	0.000000	0.000000	10.001703	0.000000	1.000000	0.093498
0.150000	0.550000	0.000000	2	6	0	0.000000	0.000000	0.000000	10.001703	0.000000	1.000000	0.093496
0.250000	0.550000	0.000000	3	6	0	0.000000	0.000000	0.000000	10.001703	0.000000	1.000000	0.093446
0.350000	0.550000	0.000000	4	6	0	0.000000	0.000000	0.000000	10.001703	0.000000	1.000000	0.093390
0.450000	0.550000	0.000000	5	6	0	0.000000	0.000000	0.000000	10.001703	0.000000	1.000000	0.093317
0.550000	0.550000	0.000000	6	6	0	0.000000	0.000000	0.000000	10.001703	0.000000	1.000000	0.093225
0.650000	0.550000	0.000000	7	6	0	0.000000	0.000000	0.000000	10.001703	0.000000	1.000000	0.093106
0.750000	0.550000	0.000000	8	6	0	0.000000	0.000000	0.000000	10.001703	0.000000	1.000000	0.092950
0.850000	0.550000	0.000000	9	6	0	0.000000	0.000000	0.000000	10.001703	0.000000	1.000000	0.092718
0.950000	0.550000	0.000000	10	6	0	0.000000	0.000000	0.000000	10.001703	0.000000	1.000000	0.092442
1.000000	0.550000	0.000000	11	6	0	0.000000	0.000000	0.000000	39.991753	0.000000	1.000000	0.000000
0.000000	0.650000	0.000000	0	7	0	0.000000	0.000000	0.000000	10.001673	0.000000	1.000000	0.000000
0.050000	0.650000	0.000000	1	7	0	0.000000	0.000000	0.000000	10.001703	0.000000	1.000000	0.093494
0.150000	0.650000	0.000000	2	7	0	0.000000	0.000000	0.000000	10.001703	0.000000	1.000000	0.093489
0.250000	0.650000	0.000000	3	7	0	0.000000	0.000000	0.000000	10.001703	0.000000	1.000000	0.093440
0.350000	0.650000	0.000000	4	7	0	0.000000	0.000000	0.000000	10.001703	0.000000	1.000000	0.093383
0.450000	0.650000	0.000000	5	7	0	0.000000	0.000000	0.000000	10.001703	0.000000	1.000000	0.093309
0.550000	0.650000	0.000000	6	7	0	0.000000	0.000000	0.000000	10.001703	0.000000	1.000000	0.093216
0.650000	0.650000	0.000000	7	7	0	0.000000	0.000000	0.000000	10.001703	0.000000	1.000000	0.093095
0.750000	0.650000	0.000000	8	7	0	0.000000	0.000000	0.000000	10.001703	0.000000	1.000000	0.092931
0.850000	0.650000	0.000000	9	7	0	0.000000	0.000000	0.000000	10.001703	0.000000	1.000000	0.092686
0.950000	0.650000	0.000000	10	7	0	0.000000	0.000000	0.000000	10.001703	0.000000	1.000000	0.092390
1.000000	0.650000	0.000000	11	7	0	0.000000	0.000000	0.000000	39.991753	0.000000	1.000000	0.000000
0.000000	0.750000	0.000000	0	8	0	0.000000	0.000000	0.000000	10.001673	0.000000	1.000000	0.000000
0.050000	0.750000	0.000000	1	8	0	0.000000	0.000000	0.000000	10.001703	0.000000	1.000000	0.093466
0.150000	0.750000	0.000000	2	8	0	0.000000	0.000000	0.000000	10.001703	0.000000	1.000000	0.093466
0.250000	0.750000	0.000000	3	8	0	0.000000	0.000000	0.000000	10.001703	0.000000	1.000000	0.093426
0.350000	0.750000	0.000000	4	8	0	0.000000	0.000000	0.000000	10.001703	0.000000	1.000000	0.093369
0.450000	0.750000	0.000000	5	8	0	0.000000	0.000000	0.000000	10.001703	0.000000	1.000000	0.093296
0.550000	0.750000	0.000000	6	8	0	0.000000	0.000000	0.000000	10.001703	0.000000	1.000000	0.093201
0.650000	0.750000	0.000000	7	8	0	0.000000	0.000000	0.000000	10.001703	0.000000	1.000000	0.093076
0.750000	0.750000	0.000000	8	8	0	0.000000	0.000000	0.000000	10.001703	0.000000	1.000000	0.092903
0.850000	0.750000	0.000000	9	8	0	0.000000	0.000000	0.000000	10.001703	0.000000	1.000000	0.092634
0.950000	0.750000	0.000000	10	8	0	0.000000	0.000000	0.000000	10.001703	0.000000	1.000000	0.092303
1.000000	0.750000	0.000000	11	8	0	0.000000	0.000000	0.000000	39.991753	0.000000	1.000000	0.000000
0.000000	0.850000	0.000000	0	9	0	0.000000	0.000000	0.000000	10.001673	0.000000	1.000000	0.000000
0.050000	0.850000	0.000000	1	9	0	0.000000	0.000000	0.000000	10.001703	0.000000	1.000000	0.093426
0.150000	0.850000	0.000000	2	9	0	0.000000	0.000000	0.000000	10.001703	0.000000	1.000000	0.093434
0.250000	0.850000	0.000000	3	9	0	0.000000	0.000000	0.000000	10.001703	0.000000	1.000000	0.093407
0.350000	0.850000	0.000000	4	9	0	0.000000	0.000000	0.000000	10.001703	0.000000	1.000000	0.093353
0.450000	0.850000	0.000000	5	9	0	0.000000	0.000000	0.000000	10.001703	0.000000	1.000000	0.093280
0.550000	0.850000	0.000000	6	9	0	0.000000	0.000000	0.000000	10.001703	0.000000	1.000000	0.093184
0.650000	0.850000	0.000000	7	9	0	0.000000	0.000000	0.000000	10.001703	0.000000	1.000000	0.093054
0.750000	0.850000	0.000000	8	9	0	0.000000	0.000000	0.000000	10.001703	0.000000	1.000000	0.092867
0.850000	0.850000	0.000000	9	9	0	0.000000	0.000000	0.000000	10.001703	0.000000	1.000000	0.092569
0.950000	0.850000	0.000000	10	9	0	0.000000	0.000000	0.000000	10.001703	0.000000	1.000000	0.092194
1.000000	0.850000	0.000000	11	9	0	0.000000	0.000000	0.000000	39.991753	0.000000	1.000000	0.000000
0.000000	0.950000	0.000000	0	10	0	0.000000	0.000000	0.000000	10.001673	0.000000	1.000000	0.000000
0.050000	0.950000	0.000000	1	10	0	0.000000	0.000000	0.000000	10.001703	0.000000	1.000000	0.093380
0.150000	0.950000	0.000000	2	10	0	0.000000	0.000000	0.000000	10.001703	0.000000	1.000000	0.093406
0.250000	0.950000	0.000000	3	10	0	0.000000	0.000000	0.000000	10.001703	0.000000	1.000000	0.093390
0.350000	0.950000	0.000000	4	10	0	0.000000	0.000000	0.000000	10.001703	0.000000	1.000000	0.093338
0.450000	0.950000	0.000000	5	10	0	0.000000	0.000000	0.000000	10.001703	0.000000	1.000000	0.093265
0.550000	0.950000	0.000000	6	10	0	0.000000	0.000000	0.000000	10.001703	0.000000	1.000000	0.093168
0.650000	0.950000	0.000000	7	10	0	0.000000	0.000000	0.000000	10.001703	0.000000	1.000000	0.093036
0.750000	0.950000	0.000000	8	10	0	0.000000	0.000000	0.000000	10.001703	0.000000	1.000000	0.092840
0.850000	0.950000	0.000000	9	10	0	0.000000	0.000000	0.000000	10.001703	0.000000	1.000000	0.092499
0.950000	0.950000	0.000000	10	10	0	0.000000	0.000000	0.000000	10.001703	0.000000	1.000000	0.092069
1.000000	0.950000	0.000000	11	10	0	0.000000	0.000000	0.000000	39.991753	0.000000	1.000000	0.000000
0.000000	1.000000	0.000000	0	11	0	0.000000	0.000000	0.000000	10.001673	0.000000	1.000000	0.000000
0.050000	1.000000	0.000000	1	11	0	0.000000	0.000000	0.000000	10.001673	0.000000	1.000000	0.000000
0.150000	1.000000	0.000000	2	11	0	0.000000	0.000000	0.000000	10.001673	0.000000	1.000000	0.000000
0.250000	1.000000	0.000000	3	11	0	0.000000	0.000000	0.000000	10.001673	0.000000	1.000000	0.000000
0.350000	1.000000	0.000000	4	11	0	0.000000	0.000000	0.000000	10.001673	0.000000	1.000000	0.000000
0.450000	1.000000	0.000000	5	11	0	0.000000	0.000000	0.000000	10.001673	0.000000	1.000000	0.000000
0.550000	1.000000	0.000000	6	11	0	0.000000	0.000000	0.000000	10.001673	0.000000	1.000000	0.000000
0.650000	1.000000	0.000000	7	11	0	0.000000	0.000000	0.000000	10.001673	0.000000	1.000000	0.000000
0.750000	1.000000	0.000000	8	11	0	0.000000	0.000000	0.000000	10.001673	0.000000	1.000000	0.000000
0.850000	1.000000	0.000000	9	11	0	0.000000	0.000000	0.000000	10.001673	0.000000	1.000000	0.000000
0.950000	1.000000	0.000000	10	11	0	0.000000	0.000000	0.000000	10.001673	0.000000	1.000000	0.000000
1.000000	1.000000	0.000000	11	11	0	0.000000	0.000000	0.000000	29.995060	0.000000	1.000000	0.000000
0.000000	0.000000	0.050000	0	0	1	0.000000	0.000000	0.000000	10.001673	0.000000	1.000000	0.000000
0.050000	0.000000	0.050000	1	0	1	0.000000	0.000000	0.000000	10.001673	0.000000	1.000000	0.093380
0.150000	0.000000	0.050000	2	0	1	0.000000	0.000000	0.000000	10.001673	0.000000	1.000000	0.093406
0.250000	0.000000	0.050000	3	0	1	0.000000	0.000000	0.000000	10.001673	0.000000	1.000000	0.093390
0.350000	0.000000	0.050000	4	0	1	0.000000	0.000000	0.000000	10.001673	0.000000	1.000000	0.093338
0.450000	0.000000	0.050000	5	0	1	0.000000	0.000000	0.000000	10.001673	0.000000	1.000000	0.093265
0.550000	0.000000	0.050000	6	0	1	0.000000	0.000000	0.000000	10.001673	0.000000	1.000000	0.093168
0.650000	0.000000	0.050000	7	0	1	0.000000	0.000000	0.000000	10.001673	0.000000	1.000000	0.093036
0.750000	0.000000	0.050000	8	0	1	0.000000	0.000000	0.000000	10.001673	0.000000	1.000000	0.092840
0.850000	0.000000	0.050000	9	0	1	0.000000	0.000000	0.000000	10.001673	0.000000	1.000000	0.092499
0.950000	0.000000	0.050000	10	0	1	0.000000	0.000000	0.000000	10.001673	0.000000	1.000000	0.092069
1.000000	0.000000	0.050000	11	0	1	0.000000	0.000000	0.000000	39.991753	0.000000	1.000000	0.000000
0.000000	0.050000	0.050000	0	1	1	0.000000	0.000000	0.000000	10.001673	0.000000	1.000000	0.093380
0.050000	0.050000	0.050000	1	1	1	0.002053	0.002536	-0.004588	13.441142	0.000000	-1.000000	0.093380
0.150000	0.050000	0.050000	2	1	1	0.004578	0.001822	-0.002294	13.325568	0.000000	-1.000000	0.093406
0.250000	0.050000	0.050000	3	1	1	0.006138	0.001926	-0.003013	13.321960	0.000000	-1.000000	0.093390
0.350000	0.050000	0.050000	4	1	1	0.008390	0.001866	-0.003031	13.322321	0.000000	-1.000000	0.093338
0.450000	0.050000	0.050000	5	1	1	0.010849	0.001789	-0.003084	13.327711	0.000000	-1.000000	0.093265
0.550000	0.050000	0.050000	6	1	1	0.013704	0.001717	-0.003277	13.342947	0.000000	-1.000000	0.093168
0.650000	0.050000	0.050000	7	1	1	0.017346	0.001641	-0.003724	13.372554	0.000000	-1.000000	0.093036
0.750000	0.050000	0.050000	8	1	1	0.022676	0.001445	-0.004692	13.420172	0.000000	-1.000000	0.092840
0.850000	0.050000	0.050000	9	1	1	0.031315	0.000618	-0.006010	13.470250	0.000000	-1.000000	0.092499
0.950000	0.050000	0.050000	10	1	1	0.018353	-0.002611	0.020964	13.908992	0.000000	-1.000000	0.092069
1.000000	0.050000	0.050000	11	1	1	0.000000	0.000000	0.000000	39.991753	0.000000	1.000000	0.092069
0.000000	0.150000	0.050000	0	2	1	0.000000	0.000000	0.000000	10.001673	0.000000	1.000000	0.093426
0.050000	0.150000	0.050000	1	2	1	0.002373	0.004832	-0.002134	13.348489	0.000000	-1.000000	0.093426
0.150000	0.150000	0.050000	2	2	1	0.005971	0.003396	-0.000979	13.314352	0.000000	-1.000000	0.093434
0.250000	0.150000	0.050000	3	2	1	0.008713	0.003491	-0.001154	13.305345	0.000000	-1.000000	0.093407
0.350000	0.150000	0.050000	4	2	1	0.011758	0.003359	-0.001156	13.300202	0.000000	-1.000000	0.093353
0.450000	0.150000	0.050000	5	2	1	0.014905	0.003167	-0.001208	13.300716	0.000000	-1.000000	0.093280
0.550000	0.150000	0.050000	6	2	1	0.018373	0.002948	-0.001362	13.310039	0.000000	-1.000000	0.093184
0.650000	0.150000	0.050000	7	2	1	0.022513	0.002657	-0.001668	13.330654	0.000000	-1.000000	0.093054
0.750000	0.150000	0.050000	8	2	1	0.027950	0.002029	-0.002283	13.365931	0.000000	-1.000000	0.092867
0.850000	0.150000	0.050000	9	2	1	0.035480	0.000178	-0.003327	13.417073	0.000000	-1.000000	0.092569
0.950000	0.150000	0.050000	10	2	1	0.019932	-0.005538	0.020248	13.903309	0.000000	-1.000000	0.092194
1.000000	0.150000	0.050000	11	2	1	0.000000	0.000000	0.000000	39.991753	0.000000	1.000000	0.092194
0.000000	0.250000	0.050000	0	3	1	0.000000	0.000000	0.000000	10.001673	0.000000	1.000000	0.093466
0.050000	0.250000	0.050000	1	3	1	0.002930	0.003774	-0.002110	13.259263	0.000000	-1.000000	0.093466
0.150000	0.250000	0.050000	2	3	1	0.007564	0.002679	-0.001234	13.277216	0.000000	-1.000000	0.093466
0.250000	0.250000	0.050000	3	3	1	0.010900	0.002662	-0.001165	13.277026	0.000000	-1.000000	0.093426
0.350000	0.250000	0.050000	4	3	1	0.014150	0.002548	-0.001180	13.276546	0.000000	-1.000000	0.093369
0.450000	0.250000	0.050000	5	3	1	0.017460	0.002337	-0.001272	13.280403	0.000000	-1.000000	0.093296
0.550000	0.250000	0.050000	6	3	1	0.021019	0.002043	-0.001449	13.291282	0.000000	-1.000000	0.093201
0.650000	0.250000	0.050000	7	3	1	0.025083	0.001588	-0.001752	13.311304	0.000000	-1.000000	0.093077
0.750000	0.250000	0.050000	8	3	1	0.030082	0.000690	-0.002325	13.344403	0.000000	-1.000000	0.092903
0.850000	0.250000	0.050000	9	3	1	0.036673	-0.001222	-0.003447	13.398407	0.000000	-1.000000	0.092634
0.950000	0.250000	0.050000	10	3	1	0.020231	-0.005493	0.019870	13.883039	0.000000	-1.000000	0.092303
1.000000	0.250000	0.050000	11	3	1	0.000000	0.000000	0.000000	39.991753	0.000000	1.000000	0.092303
0.000000	0.350000	0.050000	0	4	1	0.000000	0.000000	0.000000	10.001673	0.000000	1.000000	0.093494
0.050000	0.350000	0.050000	1	4	1	0.003610	0.002300	-0.002956	13.285185	0.000000	-1.000000	0.093494
0.150000	0.350000	0.050000	2	4	1	0.009149	0.001769	-0.001490	13.298431	0.000000	-1.000000	0.093489
0.250000	0.350000	0.050000	3	4	1	0.012758	0.001741	-0.001224	13.290600	0.000000	-1.000000	0.093440
0.350000	0.350000	0.050000	4	4	1	0.016125	0.001650	-0.001230	13.285908	0.000000	-1.000000	0.093383
0.450000	0.350000	0.050000	5	4	1	0.019571	0.001483	-0.001322	13.287259	0.000000	-1.000000	0.093309
0.550000	0.350000	0.050000	6	4	1	0.023220	0.001233	-0.001500	13.296071	0.000000	-1.000000	0.093216
0.650000	0.350000	0.050000	7	4	1	0.027234	0.000823	-0.001802	13.314075	0.000000	-1.000000	0.093095
0.750000	0.350000	0.050000	8	4	1	0.031890	0.000055	-0.002375	13.345484	0.000000	-1.000000	0.092931
0.850000	0.350000	0.050000	9	4	1	0.037724	-0.001358	-0.003507	13.398655	0.000000	-1.000000	0.092686
0.950000	0.350000	0.050000	10	4	1	0.020513	-0.004122	0.019503	13.878101	0.000000	-1.000000	0.092390
1.000000	0.350000	0.050000	11	4	1	0.000000	0.000000	0.000000	39.991753	0.000000	1.000000	0.092390
0.000000	0.450000	0.050000	0	5	1	0.000000	0.000000	0.000000	10.001673	0.000000	1.000000	0.093498
0.050000	0.450000	0.050000	1	5	1	0.003984	0.000822	-0.003160	13.318817	0.000000	-1.000000	0.093498
0.150000	0.450000	0.050000	2	5	1	0.009965	0.000664	-0.001333	13.315196	0.000000	-1.000000	0.093496
0.250000	0.450000	0.050000	3	5	1	0.013659	0.000642	-0.001053	13.297418	0.000000	-1.000000	0.093446
0.350000	0.450000	0.050000	4	5	1	0.017108	0.000595	-0.001156	13.289948	0.000000	-1.000000	0.093390
0.450000	0.450000	0.050000	5	5	1	0.020694	0.000523	-0.001309	13.291028	0.000000	-1.000000	0.093317
0.550000	0.450000	0.050000	6	5	1	0.024457	0.000420	-0.001509	13.299635	0.000000	-1.000000	0.093225
0.650000	0.450000	0.050000	7	5	1	0.028469	0.000251	-0.001830	13.317310	0.000000	-1.000000	0.093106
0.750000	0.450000	0.050000	8	5	1	0.032936	-0.000052	-0.002437	13.348684	0.000000	-1.000000	0.092950
0.850000	0.450000	0.050000	9	5	1	0.038337	-0.000576	-0.003592	13.401965	0.000000	-1.000000	0.092718
0.950000	0.450000	0.050000	10	5	1	0.020677	-0.001556	0.019120	13.877736	0.000000	-1.000000	0.092442
1.000000	0.450000	0.050000	11	5	1	0.000000	0.000000	0.000000	39.991753	0.000000	1.000000	0.092442
0.000000	0.550000	0.050000	0	6	1	0.000000	0.000000	0.000000	10.001673	0.000000	1.000000	0.093498
0.050000	0.550000	0.050000	1	6	1	0.003984	-0.000824	-0.003161	13.318831	0.000000	-1.000000	0.093498
0.150000	0.550000	0.050000	2	6	1	0.009965	-0.000666	-0.001333	13.315204	0.000000	-1.000000	0.093496
0.250000	0.550000	0.050000	3	6	1	0.013659	-0.000644	-0.001053	13.297411	0.000000	-1.000000	0.093446
0.350000	0.550000	0.050000	4	6	1	0.017108	-0.000597	-0.001157	13.289959	0.000000	-1.000000	0.093390
0.450000	0.550000	0.050000	5	6	1	0.020694	-0.000525	-0.001309	13.291039	0.000000	-1.000000	0.093317
0.550000	0.550000	0.050000	6	6	1	0.024457	-0.000422	-0.001509	13.299644	0.000000	-1.000000	0.093225
0.650000	0.550000	0.050000	7	6	1	0.028468	-0.000252	-0.001831	13.317320	0.000000	-1.000000	0.093106
0.750000	0.550000	0.050000	8	6	1	0.032936	0.000051	-0.002437	13.348699	0.000000	-1.000000	0.092950
0.850000	0.550000	0.050000	9	6	1	0.038337	0.000576	-0.003592	13.401981	0.000000	-1.000000	0.092718
0.950000	0.550000	0.050000	10	6	1	0.020677	0.001556	0.019121	13.877743	0.000000	-1.000000	0.092442
1.000000	0.550000	0.050000	11	6	1	0.000000	0.000000	0.000000	39.991753	0.000000	1.000000	0.092442
0.000000	0.650000	0.050000	0	7	1	0.000000	0.000000	0.000000	10.001673	0.000000	1.000000	0.093494
0.050000	0.650000	0.050000	1	7	1	0.003610	-0.002301	-0.002957	13.285204	0.000000	-1.000000	0.093494
0.150000	0.650000	0.050000	2	7	1	0.009149	-0.001770	-0.001490	13.298446	0.000000	-1.000000	0.093489
0.250000	0.650000	0.050000	3	7	1	0.012757	-0.001742	-0.001225	13.290607	0.000000	-1.000000	0.093440
0.350000	0.650000	0.050000	4	7	1	0.016125	-0.001651	-0.001230	13.285914	0.000000	-1.000000	0.093383
0.450000	0.650000	0.050000	5	7	1	0.019571	-0.001484	-0.001322	13.287267	0.000000	-1.000000	0.093309
0.550000	0.650000	0.050000	6	7	1	0.023220	-0.001234	-0.001500	13.296078	0.000000	-1.000000	0.093216
0.650000	0.650000	0.050000	7	7	1	0.027234	-0.000823	-0.001802	13.314086	0.000000	-1.000000	0.093095
0.750000	0.650000	0.050000	8	7	1	0.031890	-0.000056	-0.002375	13.345495	0.000000	-1.000000	0.092931
0.850000	0.650000	0.050000	9	7	1	0.037724	0.001358	-0.003507	13.398671	0.000000	-1.000000	0.092686
0.950000	0.650000	0.050000	10	7	1	0.020513	0.004122	0.019503	13.878111	0.000000	-1.000000	0.092390
1.000000	0.650000	0.050000	11	7	1	0.000000	0.000000	0.000000	39.991753	0.000000	1.000000	0.092390
0.000000	0.750000	0.050000	0	8	1	0.000000	0.000000	0.000000	10.001673	0.000000	1.000000	0.093466
0.050000	0.750000	0.050000	1	8	1	0.002930	-0.003774	-0.002110	13.259271	0.000000	-1.000000	0.093466
0.150000	0.750000	0.050000	2	8	1	0.007564	-0.002679	-0.001234	13.277226	0.000000	-1.000000	0.093466
0.250000	0.750000	0.050000	3	8	1	0.010899	-0.002663	-0.001165	13.277036	0.000000	-1.000000	0.093426
0.350000	0.750000	0.050000	4	8	1	0.014149	-0.002549	-0.001180	13.276552	0.000000	-1.000000	0.093369
0.450000	0.750000	0.050000	5	8	1	0.017459	-0.002338	-0.001272	13.280412	0.000000	-1.000000	0.093296
0.550000	0.750000	0.050000	6	8	1	0.021018	-0.002044	-0.001449	13.291291	0.000000	-1.000000	0.093201
0.650000	0.750000	0.050000	7	8	1	0.025083	-0.001588	-0.001751	13.311305	0.000000	-1.000000	0.093076
0.750000	0.750000	0.050000	8	8	1	0.030082	-0.000691	-0.002325	13.344407	0.000000	-1.000000	0.092903
0.850000	0.750000	0.050000	9	8	1	0.036673	0.001222	-0.003447	13.398416	0.000000	-1.000000	0.092634
0.950000	0.750000	0.050000	10	8	1	0.020231	0.005493	0.019869	13.883045	0.000000	-1.000000	0.092303
1.000000	0.750000	0.050000	11	8	1	0.000000	0.000000	0.000000	39.991753	0.000000	1.000000	0.092303
0.000000	0.850000	0.050000	0	9	1	0.000000	0.000000	0.000000	10.001673	0.000000	1.000000	0.093426
0.050000	0.850000	0.050000	1	9	1	0.002372	-0.004832	-0.002134	13.348495	0.000000	-1.000000	0.093426
0.150000	0.850000	0.050000	2	9	1	0.005970	-0.003396	-0.000979	13.314355	0.000000	-1.000000	0.093434
0.250000	0.850000	0.050000	3	9	1	0.008712	-0.003491	-0.001154	13.305351	0.000000	-1.000000	0.093407
0.350000	0.850000	0.050000	4	9	1	0.011757	-0.003360	-0.001156	13.300207	0.000000	-1.000000	0.093353
0.450000	0.850000	0.050000	5	9	1	0.014904	-0.003168	-0.001208	13.300735	0.000000	-1.000000	0.093280
0.550000	0.850000	0.050000	6	9	1	0.018372	-0.002949	-0.001363	13.310038	0.000000	-1.000000	0.093184
0.650000	0.850000	0.050000	7	9	1	0.022512	-0.002658	-0.001668	13.330656	0.000000	-1.000000	0.093054
0.750000	0.850000	0.050000	8	9	1	0.027949	-0.002030	-0.002283	13.365939	0.000000	-1.000000	0.092867
0.850000	0.850000	0.050000	9	9	1	0.035479	-0.000178	-0.003327	13.417080	0.000000	-1.000000	0.092569
0.950000	0.850000	0.050000	10	9	1	0.019932	0.005538	0.020248	13.903318	0.000000	-1.000000	0.092194
1.000000	0.850000	0.050000	11	9	1	0.000000	0.000000	0.000000	39.991753	0.000000	1.000000	0.092194
0.000000	0.950000	0.050000	0	10	1	0.000000	0.000000	0.000000	10.001673	0.000000	1.000000	0.093380
0.050000	0.950000	0.050000	1	10	1	0.002052	-0.002535	-0.004588	13.441139	0.000000	-1.000000	0.093380
0.150000	0.950000	0.050000	2	10	1	0.004577	-0.001822	-0.002294	13.325578	0.000000	-1.000000	0.093406
0.250000	0.950000	0.050000	3	10	1	0.006136	-0.001927	-0.003013	13.321967	0.000000	-1.000000	0.093390
0.350000	0.950000	0.050000	4	10	1	0.008388	-0.001866	-0.003031	13.322347	0.000000	-1.000000	0.093338
0.450000	0.950000	0.050000	5	10	1	0.010848	-0.001790	-0.003084	13.327717	0.000000	-1.000000	0.093265
0.550000	0.950000	0.050000	6	10	1	0.013703	-0.001718	-0.003277	13.342967	0.000000	-1.000000	0.093168
0.650000	0.950000	0.050000	7	10	1	0.017346	-0.001641	-0.003724	13.372575	0.000000	-1.000000	0.093036
0.750000	0.950000	0.050000	8	10	1	0.022676	-0.001446	-0.004693	13.420197	0.000000	-1.000000	0.092840
0.850000	0.950000	0.050000	9	10	1	0.031314	-0.000618	-0.006010	13.470265	0.000000	-1.000000	0.092499
0.950000	0.950000	0.050000	10	10	1	0.018353	0.002611	0.020964	13.908987	0.000000	-1.000000	0.092069
1.000000	0.950000	0.050000	11	10	1	0.000000	0.000000	0.000000	39.991753	0.000000	1.000000	0.092069
0.000000	1.000000	0.050000	0	11	1	0.000000	0.000000	0.000000	10.001673	0.000000	1.000000	0.000000
0.050000	1.000000	0.050000	1	11	1	0.000000	0.000000	0.000000	10.001673	0.000000	1.000000	0.093380
0.150000	1.000000	0.050000	2	11	1	0.000000	0.000000	0.000000	10.001673	0.000000	1.000000	0.093406
0.250000	1.000000	0.050000	3	11	1	0.000000	0.000000	0.000000	10.001673	0.000000	1.000000	0.093390
0.350000	1.000000	0.050000	4	11	1	0.000000	0.000000	0.000000	10.001673	0.000000	1.000000	0.093338
0.450000	1.000000	0.050000	5	11	1	0.000000	0.000000	0.000000	10.001673	0.000000	1.000000	0.093265
0.550000	1.000000	0.050000	6	11	1	0.000000	0.000000	0.000000	10.001673	0.000000	1.000000	0.093168
0.650000	1.000000	0.050000	7	11	1	0.000000	0.000000	0.000000	10.001673	0.000000	1.000000	0.093036
0.750000	1.000000	0.050000	8	11	1	0.000000	0.000000	0.000000	10.001673	0.000000	1.000000	0.092840
0.850000	1.000000	0.050000	9	11	1	0.000000	0.000000	0.000000	10.001673	0.000000	1.000000	0.092499
0.950000	1.000000	0.050000	10	11	1	0.000000	0.000000	0.000000	10.001673	0.000000	1.000000	0.092069
1.000000	1.000000	0.050000	11	11	1	0.000000	0.000000	0.000000	39.991753	0.000000	1.000000	0.000000
0.000000	0.000000	0.150000	0	0	2	0.000000	0.000000	0.000000	10.001673	0.000000	1.000000	0.000000
0.050000	0.000000	0.150000	1	0	2	0.000000	0.000000	0.000000	10.001673	0.000000	1.000000	0.069949
0.150000	0.000000	0.150000	2	0	2	0.000000	0.000000	0.000000	10.001673	0.000000	1.000000	0.069792
0.250000	0.000000	0.150000	3	0	2	0.000000	0.000000	0.000000	10.001673	0.000000	1.000000	0.069773
0.350000	0.000000	0.150000	4	0	2	0.000000	0.000000	0.000000	10.001673	0.000000	1.000000	0.069717
0.450000	0.000000	0.150000	5	0	2	0.000000	0.000000	0.000000	10.001673	0.000000	1.000000	0.069660
0.550000	0.000000	0.150000	6	0	2	0.000000	0.000000	0.000000	10.001673	0.000000	1.000000	0.069612
0.650000	0.000000	0.150000	7	0	2	0.000000	0.000000	0.000000	10.001673	0.000000	1.000000	0.069577
0.750000	0.000000	0.150000	8	0	2	0.000000	0.000000	0.000000	10.001673	0.000000	1.000000	0.069544
0.850000	0.000000	0.150000	9	0	2	0.000000	0.000000	0.000000	10.001673	0.000000	1.000000	0.069481
0.950000	0.000000	0.150000	10	0	2	0.000000	0.000000	0.000000	10.001673	0.000000	1.000000	0.070114
1.000000	0.000000	0.150000	11	0	2	0.000000	0.000000	0.000000	39.991753	0.000000	1.000000	0.000000
0.000000	0.050000	0.150000	0	1	2	0.000000	0.000000	0.000000	10.001673	0.000000	1.000000	0.069949
0.050000	0.050000	0.150000	1	1	2	0.006098	0.009737	-0.025011	14.399323	0.000000	-1.000000	0.069949
0.150000	0.050000	0.150000	2	1	2	0.007061	0.008113	-0.007567	14.272596	0.000000	-1.000000	0.069792