TITLE = "dt=0.100000s, t=1860.000000s, nu=0.000016, Lx=1.000000, Ly=1.000000, Lz=1.000000, Nx=12, Ny=12, Nz=12 "
VARIABLES =X, Y, Z, I, J, K, U, V, W, T, Xi, FlagP, P 
ZONE F=POINT, I=12, J=12, K=12
0.000000	0.000000	0.000000	0	0	0	0.000000	0.000000	0.000000	16.666667	0.000000	1.000000	0.000000
0.050000	0.000000	0.000000	1	0	0	0.000000	0.000000	0.000000	30.000000	0.000000	1.000000	0.000000
0.150000	0.000000	0.000000	2	0	0	0.000000	0.000000	0.000000	30.000000	0.000000	1.000000	0.000000
0.250000	0.000000	0.000000	3	0	0	0.000000	0.000000	0.000000	30.000000	0.000000	1.000000	0.000000
0.350000	0.000000	0.000000	4	0	0	0.000000	0.000000	0.000000	30.000000	0.000000	1.000000	0.000000
0.450000	0.000000	0.000000	5	0	0	0.000000	0.000000	0.000000	30.000000	0.000000	1.000000	0.000000
0.550000	0.000000	0.000000	6	0	0	0.000000	0.000000	0.000000	30.000000	0.000000	1.000000	0.000000
0.650000	0.000000	0.000000	7	0	0	0.000000	0.000000	0.000000	30.000000	0.000000	1.000000	0.000000
0.750000	0.000000	0.000000	8	0	0	0.000000	0.000000	0.000000	30.000000	0.000000	1.000000	0.000000
0.850000	0.000000	0.000000	9	0	0	0.000000	0.000000	0.000000	30.000000	0.000000	1.000000	0.000000
0.950000	0.000000	0.000000	10	0	0	0.000000	0.000000	0.000000	30.000000	0.000000	1.000000	0.000000
1.000000	0.000000	0.000000	11	0	0	0.000000	0.000000	0.000000	36.666667	0.000000	1.000000	0.000000
0.000000	0.050000	0.000000	0	1	0	0.000000	0.000000	0.000000	10.000000	0.000000	1.000000	0.000000
0.050000	0.050000	0.000000	1	1	0	0.000000	0.000000	0.000000	25.130531	0.000000	1.000000	-0.091209
0.150000	0.050000	0.000000	2	1	0	0.000000	0.000000	0.000000	25.175203	0.000000	1.000000	-0.091592
0.250000	0.050000	0.000000	3	1	0	0.000000	0.000000	0.000000	25.182601	0.000000	1.000000	-0.092482
0.350000	0.050000	0.000000	4	1	0	0.000000	0.000000	0.000000	25.184670	0.000000	1.000000	-0.092665
0.450000	0.050000	0.000000	5	1	0	0.000000	0.000000	0.000000	25.186555	0.000000	1.000000	-0.092689
0.550000	0.050000	0.000000	6	1	0	0.000000	0.000000	0.000000	25.188366	0.000000	1.000000	-0.092661
0.650000	0.050000	0.000000	7	1	0	0.000000	0.000000	0.000000	25.190152	0.000000	1.000000	-0.092598
0.750000	0.050000	0.000000	8	1	0	0.000000	0.000000	0.000000	25.191979	0.000000	1.000000	-0.092502
0.850000	0.050000	0.000000	9	1	0	0.000000	0.000000	0.000000	25.195349	0.000000	1.000000	-0.092354
0.950000	0.050000	0.000000	10	1	0	0.000000	0.000000	0.000000	25.492446	0.000000	1.000000	-0.092116
1.000000	0.050000	0.000000	11	1	0	0.000000	0.000000	0.000000	40.000000	0.000000	1.000000	0.000000
0.000000	0.150000	0.000000	0	2	0	0.000000	0.000000	0.000000	10.000000	0.000000	1.000000	0.000000
0.050000	0.150000	0.000000	1	2	0	0.000000	0.000000	0.000000	25.101020	0.000000	1.000000	-0.091230
0.150000	0.150000	0.000000	2	2	0	0.000000	0.000000	0.000000	25.142338	0.000000	1.000000	-0.091607
0.250000	0.150000	0.000000	3	2	0	0.000000	0.000000	0.000000	25.151212	0.000000	1.000000	-0.092435
0.350000	0.150000	0.000000	4	2	0	0.000000	0.000000	0.000000	25.155947	0.000000	1.000000	-0.092617
0.450000	0.150000	0.000000	5	2	0	0.000000	0.000000	0.000000	25.159835	0.000000	1.000000	-0.092657
0.550000	0.150000	0.000000	6	2	0	0.000000	0.000000	0.000000	25.162930	0.000000	1.000000	-0.092640
0.650000	0.150000	0.000000	7	2	0	0.000000	0.000000	0.000000	25.165591	0.000000	1.000000	-0.092581
0.750000	0.150000	0.000000	8	2	0	0.000000	0.000000	0.000000	25.168295	0.000000	1.000000	-0.092492
0.850000	0.150000	0.000000	9	2	0	0.000000	0.000000	0.000000	25.172472	0.000000	1.000000	-0.092362
0.950000	0.150000	0.000000	10	2	0	0.000000	0.000000	0.000000	25.467407	0.000000	1.000000	-0.092145
1.000000	0.150000	0.000000	11	2	0	0.000000	0.000000	0.000000	40.000000	0.000000	1.000000	0.000000
0.000000	0.250000	0.000000	0	3	0	0.000000	0.000000	0.000000	10.000000	0.000000	1.000000	0.000000
0.050000	0.250000	0.000000	1	3	0	0.000000	0.000000	0.000000	25.098956	0.000000	1.000000	-0.091232
0.150000	0.250000	0.000000	2	3	0	0.000000	0.000000	0.000000	25.139044	0.000000	1.000000	-0.091610
0.250000	0.250000	0.000000	3	3	0	0.000000	0.000000	0.000000	25.147981	0.000000	1.000000	-0.092429
0.350000	0.250000	0.000000	4	3	0	0.000000	0.000000	0.000000	25.153228	0.000000	1.000000	-0.092614
0.450000	0.250000	0.000000	5	3	0	0.000000	0.000000	0.000000	25.157837	0.000000	1.000000	-0.092653
0.550000	0.250000	0.000000	6	3	0	0.000000	0.000000	0.000000	25.162013	0.000000	1.000000	-0.092636
0.650000	0.250000	0.000000	7	3	0	0.000000	0.000000	0.000000	25.165650	0.000000	1.000000	-0.092580
0.750000	0.250000	0.000000	8	3	0	0.000000	0.000000	0.000000	25.168353	0.000000	1.000000	-0.092489
0.850000	0.250000	0.000000	9	3	0	0.000000	0.000000	0.000000	25.172580	0.000000	1.000000	-0.092360
0.950000	0.250000	0.000000	10	3	0	0.000000	0.000000	0.000000	25.472609	0.000000	1.000000	-0.092149
1.000000	0.250000	0.000000	11	3	0	0.000000	0.000000	0.000000	40.000000	0.000000	1.000000	0.000000
0.000000	0.350000	0.000000	0	4	0	0.000000	0.000000	0.000000	10.000000	0.000000	1.000000	0.000000
0.050000	0.350000	0.000000	1	4	0	0.000000	0.000000	0.000000	25.124153	0.000000	1.000000	-0.091209
0.150000	0.350000	0.000000	2	4	0	0.000000	0.000000	0.000000	25.166273	0.000000	1.000000	-0.091593
0.250000	0.350000	0.000000	3	4	0	0.000000	0.000000	0.000000	25.173614	0.000000	1.000000	-0.092478
0.350000	0.350000	0.000000	4	4	0	0.000000	0.000000	0.000000	25.175476	0.000000	1.000000	-0.092666
0.450000	0.350000	0.000000	5	4	0	0.000000	0.000000	0.000000	25.177187	0.000000	1.000000	-0.092692
0.550000	0.350000	0.000000	6	4	0	0.000000	0.000000	0.000000	25.178892	0.000000	1.000000	-0.092664
0.650000	0.350000	0.000000	7	4	0	0.000000	0.000000	0.000000	25.180647	0.000000	1.000000	-0.092598
0.750000	0.350000	0.000000	8	4	0	0.000000	0.000000	0.000000	25.182511	0.000000	1.000000	-0.092492
0.850000	0.350000	0.000000	9	4	0	0.000000	0.000000	0.000000	25.186038	0.000000	1.000000	-0.092327
0.950000	0.350000	0.000000	10	4	0	0.000000	0.000000	0.000000	25.479648	0.000000	1.000000	-0.092067
1.000000	0.350000	0.000000	11	4	0	0.000000	0.000000	0.000000	40.000000	0.000000	1.000000	0.000000
0.000000	0.450000	0.000000	0	5	0	0.000000	0.000000	0.000000	10.000000	0.000000	1.000000	0.000000
0.050000	0.450000	0.000000	1	5	0	0.000000	0.000000	0.000000	25.135059	0.000000	1.000000	-0.091188
0.150000	0.450000	0.000000	2	5	0	0.000000	0.000000	0.000000	25.180254	0.000000	1.000000	-0.091560
0.250000	0.450000	0.000000	3	5	0	0.000000	0.000000	0.000000	25.188410	0.000000	1.000000	-0.092513
0.350000	0.450000	0.000000	4	5	0	0.000000	0.000000	0.000000	25.190602	0.000000	1.000000	-0.092711
0.450000	0.450000	0.000000	5	5	0	0.000000	0.000000	0.000000	25.192612	0.000000	1.000000	-0.092721
0.550000	0.450000	0.000000	6	5	0	0.000000	0.000000	0.000000	25.194534	0.000000	1.000000	-0.092678
0.650000	0.450000	0.000000	7	5	0	0.000000	0.000000	0.000000	25.196434	0.000000	1.000000	-0.092599
0.750000	0.450000	0.000000	8	5	0	0.000000	0.000000	0.000000	25.198402	0.000000	1.000000	-0.092477
0.850000	0.450000	0.000000	9	5	0	0.000000	0.000000	0.000000	25.201902	0.000000	1.000000	-0.092287
0.950000	0.450000	0.000000	10	5	0	0.000000	0.000000	0.000000	25.491442	0.000000	1.000000	-0.091997
1.000000	0.450000	0.000000	11	5	0	0.000000	0.000000	0.000000	40.000000	0.000000	1.000000	0.000000
0.000000	0.550000	0.000000	0	6	0	0.000000	0.000000	0.000000	10.000000	0.000000	1.000000	0.000000
0.050000	0.550000	0.000000	1	6	0	0.000000	0.000000	0.000000	25.135073	0.000000	1.000000	-0.091188
0.150000	0.550000	0.000000	2	6	0	0.000000	0.000000	0.000000	25.180271	0.000000	1.000000	-0.091560
0.250000	0.550000	0.000000	3	6	0	0.000000	0.000000	0.000000	25.188428	0.000000	1.000000	-0.092513
0.350000	0.550000	0.000000	4	6	0	0.000000	0.000000	0.000000	25.190619	0.000000	1.000000	-0.092711
0.450000	0.550000	0.000000	5	6	0	0.000000	0.000000	0.000000	25.192630	0.000000	1.000000	-0.092721
0.550000	0.550000	0.000000	6	6	0	0.000000	0.000000	0.000000	25.194552	0.000000	1.000000	-0.092678
0.650000	0.550000	0.000000	7	6	0	0.000000	0.000000	0.000000	25.196453	0.000000	1.000000	-0.092599
0.750000	0.550000	0.000000	8	6	0	0.000000	0.000000	0.000000	25.198420	0.000000	1.000000	-0.092477
0.850000	0.550000	0.000000	9	6	0	0.000000	0.000000	0.000000	25.201921	0.000000	1.000000	-0.092287
0.950000	0.550000	0.000000	10	6	0	0.000000	0.000000	0.000000	25.491459	0.000000	1.000000	-0.091997
1.000000	0.550000	0.000000	11	6	0	0.000000	0.000000	0.000000	40.000000	0.000000	1.000000	0.000000
0.000000	0.650000	0.000000	0	7	0	0.000000	0.000000	0.000000	10.000000	0.000000	1.000000	0.000000
0.050000	0.650000	0.000000	1	7	0	0.000000	0.000000	0.000000	25.124166	0.000000	1.000000	-0.091209
0.150000	0.650000	0.000000	2	7	0	0.000000	0.000000	0.000000	25.166287	0.000000	1.000000	-0.091593
0.250000	0.650000	0.000000	3	7	0	0.000000	0.000000	0.000000	25.173628	0.000000	1.000000	-0.092478
0.350000	0.650000	0.000000	4	7	0	0.000000	0.000000	0.000000	25.175489	0.000000	1.000000	-0.092666
0.450000	0.650000	0.000000	5	7	0	0.000000	0.000000	0.000000	25.177201	0.000000	1.000000	-0.092692
0.550000	0.650000	0.000000	6	7	0	0.000000	0.000000	0.000000	25.178905	0.000000	1.000000	-0.092664
0.650000	0.650000	0.000000	7	7	0	0.000000	0.000000	0.000000	25.180659	0.000000	1.000000	-0.092598
0.750000	0.650000	0.000000	8	7	0	0.000000	0.000000	0.000000	25.182522	0.000000	1.000000	-0.092492
0.850000	0.650000	0.000000	9	7	0	0.000000	0.000000	0.000000	25.186049	0.000000	1.000000	-0.092327
0.950000	0.650000	0.000000	10	7	0	0.000000	0.000000	0.000000	25.479658	0.000000	1.000000	-0.092067
1.000000	0.650000	0.000000	11	7	0	0.000000	0.000000	0.000000	40.000000	0.000000	1.000000	0.000000
0.000000	0.750000	0.000000	0	8	0	0.000000	0.000000	0.000000	10.000000	0.000000	1.000000	0.000000
0.050000	0.750000	0.000000	1	8	0	0.000000	0.000000	0.000000	25.098963	0.000000	1.000000	-0.091232
0.150000	0.750000	0.000000	2	8	0	0.000000	0.000000	0.000000	25.139052	0.000000	1.000000	-0.091610
0.250000	0.750000	0.000000	3	8	0	0.000000	0.000000	0.000000	25.147988	0.000000	1.000000	-0.092429
0.350000	0.750000	0.000000	4	8	0	0.000000	0.000000	0.000000	25.153234	0.000000	1.000000	-0.092614
0.450000	0.750000	0.000000	5	8	0	0.000000	0.000000	0.000000	25.157842	0.000000	1.000000	-0.092653
0.550000	0.750000	0.000000	6	8	0	0.000000	0.000000	0.000000	25.162017	0.000000	1.000000	-0.092636
0.650000	0.750000	0.000000	7	8	0	0.000000	0.000000	0.000000	25.165653	0.000000	1.000000	-0.092580
0.750000	0.750000	0.000000	8	8	0	0.000000	0.000000	0.000000	25.168356	0.000000	1.000000	-0.092489
0.850000	0.750000	0.000000	9	8	0	0.000000	0.000000	0.000000	25.172582	0.000000	1.000000	-0.092360
0.950000	0.750000	0.000000	10	8	0	0.000000	0.000000	0.000000	25.472609	0.000000	1.000000	-0.092149
1.000000	0.750000	0.000000	11	8	0	0.000000	0.000000	0.000000	40.000000	0.000000	1.000000	0.000000
0.000000	0.850000	0.000000	0	9	0	0.000000	0.000000	0.000000	10.000000	0.000000	1.000000	0.000000
0.050000	0.850000	0.000000	1	9	0	0.000000	0.000000	0.000000	25.101013	0.000000	1.000000	-0.091230
0.150000	0.850000	0.000000	2	9	0	0.000000	0.000000	0.000000	25.142331	0.000000	1.000000	-0.091607
0.250000	0.850000	0.000000	3	9	0	0.000000	0.000000	0.000000	25.151205	0.000000	1.000000	-0.092435
0.350000	0.850000	0.000000	4	9	0	0.000000	0.000000	0.000000	25.155941	0.000000	1.000000	-0.092617
0.450000	0.850000	0.000000	5	9	0	0.000000	0.000000	0.000000	25.159830	0.000000	1.000000	-0.092657
0.550000	0.850000	0.000000	6	9	0	0.000000	0.000000	0.000000	25.162926	0.000000	1.000000	-0.092640
0.650000	0.850000	0.000000	7	9	0	0.000000	0.000000	0.000000	25.165587	0.000000	1.000000	-0.092581
0.750000	0.850000	0.000000	8	9	0	0.000000	0.000000	0.000000	25.168292	0.000000	1.000000	-0.092492
0.850000	0.850000	0.000000	9	9	0	0.000000	0.000000	0.000000	25.172469	0.000000	1.000000	-0.092362
0.950000	0.850000	0.000000	10	9	0	0.000000	0.000000	0.000000	25.467410	0.000000	1.000000	-0.092145
1.000000	0.850000	0.000000	11	9	0	0.000000	0.000000	0.000000	40.000000	0.000000	1.000000	0.000000
0.000000	0.950000	0.000000	0	10	0	0.000000	0.000000	0.000000	10.000000	0.000000	1.000000	0.000000
0.050000	0.950000	0.000000	1	10	0	0.000000	0.000000	0.000000	25.130529	0.000000	1.000000	-0.091209
0.150000	0.950000	0.000000	2	10	0	0.000000	0.000000	0.000000	25.175200	0.000000	1.000000	-0.091592
0.250000	0.950000	0.000000	3	10	0	0.000000	0.000000	0.000000	25.182597	0.000000	1.000000	-0.092482
0.350000	0.950000	0.000000	4	10	0	0.000000	0.000000	0.000000	25.184667	0.000000	1.000000	-0.092665
0.450000	0.950000	0.000000	5	10	0	0.000000	0.000000	0.000000	25.186551	0.000000	1.000000	-0.092689
0.550000	0.950000	0.000000	6	10	0	0.000000	0.000000	0.000000	25.188362	0.000000	1.000000	-0.092661
0.650000	0.950000	0.000000	7	10	0	0.000000	0.000000	0.000000	25.190148	0.000000	1.000000	-0.092598
0.750000	0.950000	0.000000	8	10	0	0.000000	0.000000	0.000000	25.191975	0.000000	1.000000	-0.092502
0.850000	0.950000	0.000000	9	10	0	0.000000	0.000000	0.000000	25.195346	0.000000	1.000000	-0.092354
0.950000	0.950000	0.000000	10	10	0	0.000000	0.000000	0.000000	25.492443	0.000000	1.000000	-0.092116
1.000000	0.950000	0.000000	11	10	0	0.000000	0.000000	0.000000	40.000000	0.000000	1.000000	0.000000
0.000000	1.000000	0.000000	0	11	0	0.000000	0.000000	0.000000	16.666667	0.000000	1.000000	0.000000
0.050000	1.000000	0.000000	1	11	0	0.000000	0.000000	0.000000	30.000000	0.000000	1.000000	0.000000
0.150000	1.000000	0.000000	2	11	0	0.000000	0.000000	0.000000	30.000000	0.000000	1.000000	0.000000
0.250000	1.000000	0.000000	3	11	0	0.000000	0.000000	0.000000	30.000000	0.000000	1.000000	0.000000
0.350000	1.000000	0.000000	4	11	0	0.000000	0.000000	0.000000	30.000000	0.000000	1.000000	0.000000
0.450000	1.000000	0.000000	5	11	0	0.000000	0.000000	0.000000	30.000000	0.000000	1.000000	0.000000
0.550000	1.000000	0.000000	6	11	0	0.000000	0.000000	0.000000	30.000000	0.000000	1.000000	0.000000
0.650000	1.000000	0.000000	7	11	0	0.000000	0.000000	0.000000	30.000000	0.000000	1.000000	0.000000
0.750000	1.000000	0.000000	8	11	0	0.000000	0.000000	0.000000	30.000000	0.000000	1.000000	0.000000
0.850000	1.000000	0.000000	9	11	0	0.000000	0.000000	0.000000	30.000000	0.000000	1.000000	0.000000
0.950000	1.000000	0.000000	10	11	0	0.000000	0.000000	0.000000	30.000000	0.000000	1.000000	0.000000
1.000000	1.000000	0.000000	11	11	0	0.000000	0.000000	0.000000	36.666667	0.000000	1.000000	0.000000
0.000000	0.000000	0.050000	0	0	1	0.000000	0.000000	0.000000	10.000000	0.000000	1.000000	0.000000
0.050000	0.000000	0.050000	1	0	1	0.000000	0.000000	0.000000	25.130449	0.000000	1.000000	-0.091209
0.150000	0.000000	0.050000	2	0	1	0.000000	0.000000	0.000000	25.175122	0.000000	1.000000	-0.091592
0.250000	0.000000	0.050000	3	0	1	0.000000	0.000000	0.000000	25.182519	0.000000	1.000000	-0.092482
0.350000	0.000000	0.050000	4	0	1	0.000000	0.000000	0.000000	25.184589	0.000000	1.000000	-0.092665
0.450000	0.000000	0.050000	5	0	1	0.000000	0.000000	0.000000	25.186474	0.000000	1.000000	-0.092689
0.550000	0.000000	0.050000	6	0	1	0.000000	0.000000	0.000000	25.188284	0.000000	1.000000	-0.092661
0.650000	0.000000	0.050000	7	0	1	0.000000	0.000000	0.000000	25.190070	0.000000	1.000000	-0.092598
0.750000	0.000000	0.050000	8	0	1	0.000000	0.000000	0.000000	25.191897	0.000000	1.000000	-0.092502
0.850000	0.000000	0.050000	9	0	1	0.000000	0.000000	0.000000	25.195267	0.000000	1.000000	-0.092354
0.950000	0.000000	0.050000	10	0	1	0.000000	0.000000	0.000000	25.492364	0.000000	1.000000	-0.092116
1.000000	0.000000	0.050000	11	0	1	0.000000	0.000000	0.000000	40.000000	0.000000	1.000000	0.000000
0.000000	0.050000	0.050000	0	1	1	0.000000	0.000000	0.000000	10.000000	0.000000	1.000000	-0.091209
0.050000	0.050000	0.050000	1	1	1	0.022480	0.000193	-0.022674	25.130446	0.000000	-1.000000	-0.091209
0.150000	0.050000	0.050000	2	1	1	0.051162	0.000288	-0.006489	25.175118	0.000000	-1.000000	-0.091592
0.250000	0.050000	0.050000	3	1	1	0.058479	-0.000160	-0.000955	25.182515	0.000000	-1.000000	-0.092482
0.350000	0.050000	0.050000	4	1	1	0.059405	-0.000560	0.000750	25.184585	0.000000	-1.000000	-0.092665
0.450000	0.050000	0.050000	5	1	1	0.058589	-0.000807	0.001434	25.186470	0.000000	-1.000000	-0.092689
0.550000	0.050000	0.050000	6	1	1	0.057018	-0.000943	0.001888	25.188280	0.000000	-1.000000	-0.092661
0.650000	0.050000	0.050000	7	1	1	0.054800	-0.001038	0.002311	25.190066	0.000000	-1.000000	-0.092598
0.750000	0.050000	0.050000	8	1	1	0.051667	-0.001062	0.002922	25.191893	0.000000	-1.000000	-0.092502
0.850000	0.050000	0.050000	9	1	1	0.046641	-0.000909	0.004075	25.195264	0.000000	-1.000000	-0.092354
0.950000	0.050000	0.050000	10	1	1	0.021737	-0.000217	0.021954	25.492361	0.000000	-1.000000	-0.092116
1.000000	0.050000	0.050000	11	1	1	0.000000	0.000000	0.000000	40.000000	0.000000	1.000000	-0.092116
0.000000	0.150000	0.050000	0	2	1	0.000000	0.000000	0.000000	10.000000	0.000000	1.000000	-0.091230
0.050000	0.150000	0.050000	1	2	1	0.021978	0.000316	-0.021908	25.100934	0.000000	-1.000000	-0.091230
0.150000	0.150000	0.050000	2	2	1	0.049889	0.000430	-0.005787	25.142253	0.000000	-1.000000	-0.091607
0.250000	0.150000	0.050000	3	2	1	0.056784	-0.000082	-0.001201	25.151127	0.000000	-1.000000	-0.092435
0.350000	0.150000	0.050000	4	2	1	0.057634	-0.000513	-0.000496	25.155861	0.000000	-1.000000	-0.092617
0.450000	0.150000	0.050000	5	2	1	0.057003	-0.000792	-0.000304	25.159749	0.000000	-1.000000	-0.092657
0.550000	0.150000	0.050000	6	2	1	0.055678	-0.000966	-0.000114	25.162845	0.000000	-1.000000	-0.092640
0.650000	0.150000	0.050000	7	2	1	0.053777	-0.001062	0.000082	25.165505	0.000000	-1.000000	-0.092581
0.750000	0.150000	0.050000	8	2	1	0.051120	-0.001113	0.000551	25.168210	0.000000	-1.000000	-0.092492
0.850000	0.150000	0.050000	9	2	1	0.046798	-0.000975	0.001918	25.172387	0.000000	-1.000000	-0.092362
0.950000	0.150000	0.050000	10	2	1	0.022019	-0.000207	0.021792	25.467322	0.000000	-1.000000	-0.092145
1.000000	0.150000	0.050000	11	2	1	0.000000	0.000000	0.000000	40.000000	0.000000	1.000000	-0.092145
0.000000	0.250000	0.050000	0	3	1	0.000000	0.000000	0.000000	10.000000	0.000000	1.000000	-0.091232
0.050000	0.250000	0.050000	1	3	1	0.021972	0.000141	-0.021867	25.098871	0.000000	-1.000000	-0.091232
0.150000	0.250000	0.050000	2	3	1	0.049797	0.000056	-0.005626	25.138959	0.000000	-1.000000	-0.091610
0.250000	0.250000	0.050000	3	3	1	0.056578	0.000449	-0.001221	25.147896	0.000000	-1.000000	-0.092429
0.350000	0.250000	0.050000	4	3	1	0.057322	0.000849	-0.000569	25.153143	0.000000	-1.000000	-0.092614
0.450000	0.250000	0.050000	5	3	1	0.056503	0.001099	-0.000435	25.157752	0.000000	-1.000000	-0.092653
0.550000	0.250000	0.050000	6	3	1	0.054940	0.001240	-0.000357	25.161927	0.000000	-1.000000	-0.092636
0.650000	0.250000	0.050000	7	3	1	0.052894	0.001317	-0.000249	25.165565	0.000000	-1.000000	-0.092580
0.750000	0.250000	0.050000	8	3	1	0.050225	0.001226	0.000223	25.168268	0.000000	-1.000000	-0.092489
0.850000	0.250000	0.050000	9	3	1	0.045960	0.000792	0.001791	25.172494	0.000000	-1.000000	-0.092360
0.950000	0.250000	0.050000	10	3	1	0.021622	-0.000988	0.022630	25.472524	0.000000	-1.000000	-0.092149
1.000000	0.250000	0.050000	11	3	1	0.000000	0.000000	0.000000	40.000000	0.000000	1.000000	-0.092149
0.000000	0.350000	0.050000	0	4	1	0.000000	0.000000	0.000000	10.000000	0.000000	1.000000	-0.091209
0.050000	0.350000	0.050000	1	4	1	0.022521	0.000159	-0.022644	25.124068	0.000000	-1.000000	-0.091209
0.150000	0.350000	0.050000	2	4	1	0.051290	-0.000193	-0.006226	25.166187	0.000000	-1.000000	-0.091593
0.250000	0.350000	0.050000	3	4	1	0.058713	0.000590	-0.001023	25.173529	0.000000	-1.000000	-0.092478
0.350000	0.350000	0.050000	4	4	1	0.059835	0.001392	0.000265	25.175390	0.000000	-1.000000	-0.092666
0.450000	0.350000	0.050000	5	4	1	0.059266	0.001924	0.000759	25.177102	0.000000	-1.000000	-0.092692
0.550000	0.350000	0.050000	6	4	1	0.057883	0.002221	0.001172	25.178806	0.000000	-1.000000	-0.092664
0.650000	0.350000	0.050000	7	4	1	0.055753	0.002307	0.001638	25.180561	0.000000	-1.000000	-0.092598
0.750000	0.350000	0.050000	8	4	1	0.052610	0.002104	0.002331	25.182426	0.000000	-1.000000	-0.092492
0.850000	0.350000	0.050000	9	4	1	0.047511	0.001257	0.003676	25.185953	0.000000	-1.000000	-0.092327
0.950000	0.350000	0.050000	10	4	1	0.022147	-0.002032	0.022183	25.479563	0.000000	-1.000000	-0.092067
1.000000	0.350000	0.050000	11	4	1	0.000000	0.000000	0.000000	40.000000	0.000000	1.000000	-0.092067
0.000000	0.450000	0.050000	0	5	1	0.000000	0.000000	0.000000	10.000000	0.000000	1.000000	-0.091188
0.050000	0.450000	0.050000	1	5	1	0.022859	0.000141	-0.022718	25.134974	0.000000	-1.000000	-0.091188
0.150000	0.450000	0.050000	2	5	1	0.052372	-0.000108	-0.006761	25.180169	0.000000	-1.000000	-0.091560
0.250000	0.450000	0.050000	3	5	1	0.060345	0.000219	-0.001101	25.188325	0.000000	-1.000000	-0.092513
0.350000	0.450000	0.050000	4	5	1	0.061526	0.000591	0.000728	25.190516	0.000000	-1.000000	-0.092711
0.450000	0.450000	0.050000	5	5	1	0.060808	0.000840	0.001419	25.192527	0.000000	-1.000000	-0.092721
0.550000	0.450000	0.050000	6	5	1	0.059335	0.000959	0.001851	25.194448	0.000000	-1.000000	-0.092678
0.650000	0.450000	0.050000	7	5	1	0.057130	0.000966	0.002275	25.196349	0.000000	-1.000000	-0.092599
0.750000	0.450000	0.050000	8	5	1	0.053767	0.000828	0.002879	25.198316	0.000000	-1.000000	-0.092477
0.850000	0.450000	0.050000	9	5	1	0.048196	0.000400	0.003918	25.201817	0.000000	-1.000000	-0.092287
0.950000	0.450000	0.050000	10	5	1	0.022338	-0.001034	0.021305	25.491356	0.000000	-1.000000	-0.091997
1.000000	0.450000	0.050000	11	5	1	0.000000	0.000000	0.000000	40.000000	0.000000	1.000000	-0.091997
0.000000	0.550000	0.050000	0	6	1	0.000000	0.000000	0.000000	10.000000	0.000000	1.000000	-0.091188
0.050000	0.550000	0.050000	1	6	1	0.022860	-0.000141	-0.022719	25.134988	0.000000	-1.000000	-0.091188
0.150000	0.550000	0.050000	2	6	1	0.052373	0.000108	-0.006761	25.180186	0.000000	-1.000000	-0.091560
0.250000	0.550000	0.050000	3	6	1	0.060346	-0.000218	-0.001101	25.188342	0.000000	-1.000000	-0.092513
0.350000	0.550000	0.050000	4	6	1	0.061527	-0.000590	0.000729	25.190534	0.000000	-1.000000	-0.092711
0.450000	0.550000	0.050000	5	6	1	0.060809	-0.000839	0.001419	25.192545	0.000000	-1.000000	-0.092721
0.550000	0.550000	0.050000	6	6	1	0.059335	-0.000957	0.001852	25.194466	0.000000	-1.000000	-0.092678
0.650000	0.550000	0.050000	7	6	1	0.057131	-0.000964	0.002276	25.196368	0.000000	-1.000000	-0.092599
0.750000	0.550000	0.050000	8	6	1	0.053767	-0.000826	0.002880	25.198335	0.000000	-1.000000	-0.092477
0.850000	0.550000	0.050000	9	6	1	0.048196	-0.000399	0.003919	25.201836	0.000000	-1.000000	-0.092287
0.950000	0.550000	0.050000	10	6	1	0.022338	0.001033	0.021305	25.491373	0.000000	-1.000000	-0.091997
1.000000	0.550000	0.050000	11	6	1	0.000000	0.000000	0.000000	40.000000	0.000000	1.000000	-0.091997
0.000000	0.650000	0.050000	0	7	1	0.000000	0.000000	0.000000	10.000000	0.000000	1.000000	-0.091209
0.050000	0.650000	0.050000	1	7	1	0.022522	-0.000159	-0.022644	25.124080	0.000000	-1.000000	-0.091209
0.150000	0.650000	0.050000	2	7	1	0.051292	0.000194	-0.006226	25.166202	0.000000	-1.000000	-0.091593
0.250000	0.650000	0.050000	3	7	1	0.058715	-0.000589	-0.001023	25.173543	0.000000	-1.000000	-0.092478
0.350000	0.650000	0.050000	4	7	1	0.059837	-0.001391	0.000266	25.175404	0.000000	-1.000000	-0.092666
0.450000	0.650000	0.050000	5	7	1	0.059267	-0.001923	0.000760	25.177116	0.000000	-1.000000	-0.092692
0.550000	0.650000	0.050000	6	7	1	0.057884	-0.002221	0.001173	25.178819	0.000000	-1.000000	-0.092664
0.650000	0.650000	0.050000	7	7	1	0.055754	-0.002307	0.001639	25.180574	0.000000	-1.000000	-0.092598
0.750000	0.650000	0.050000	8	7	1	0.052610	-0.002104	0.002332	25.182437	0.000000	-1.000000	-0.092492
0.850000	0.650000	0.050000	9	7	1	0.047511	-0.001258	0.003676	25.185964	0.000000	-1.000000	-0.092327
0.950000	0.650000	0.050000	10	7	1	0.022147	0.002031	0.022182	25.479573	0.000000	-1.000000	-0.092067
1.000000	0.650000	0.050000	11	7	1	0.000000	0.000000	0.000000	40.000000	0.000000	1.000000	-0.092067
0.000000	0.750000	0.050000	0	8	1	0.000000	0.000000	0.000000	10.000000	0.000000	1.000000	-0.091232
0.050000	0.750000	0.050000	1	8	1	0.021972	-0.000141	-0.021868	25.098878	0.000000	-1.000000	-0.091232
0.150000	0.750000	0.050000	2	8	1	0.049797	-0.000056	-0.005626	25.138967	0.000000	-1.000000	-0.091610
0.250000	0.750000	0.050000	3	8	1	0.056579	-0.000449	-0.001221	25.147903	0.000000	-1.000000	-0.092429
0.350000	0.750000	0.050000	4	8	1	0.057323	-0.000849	-0.000569	25.153149	0.000000	-1.000000	-0.092614
0.450000	0.750000	0.050000	5	8	1	0.056504	-0.001100	-0.000435	25.157757	0.000000	-1.000000	-0.092653
0.550000	0.750000	0.050000	6	8	1	0.054941	-0.001240	-0.000357	25.161931	0.000000	-1.000000	-0.092636
0.650000	0.750000	0.050000	7	8	1	0.052895	-0.001318	-0.000249	25.165567	0.000000	-1.000000	-0.092580
0.750000	0.750000	0.050000	8	8	1	0.050226	-0.001227	0.000223	25.168270	0.000000	-1.000000	-0.092489
0.850000	0.750000	0.050000	9	8	1	0.045960	-0.000792	0.001791	25.172496	0.000000	-1.000000	-0.092360
0.950000	0.750000	0.050000	10	8	1	0.021622	0.000988	0.022630	25.472523	0.000000	-1.000000	-0.092149
1.000000	0.750000	0.050000	11	8	1	0.000000	0.000000	0.000000	40.000000	0.000000	1.000000	-0.092149
0.000000	0.850000	0.050000	0	9	1	0.000000	0.000000	0.000000	10.000000	0.000000	1.000000	-0.091230
0.050000	0.850000	0.050000	1	9	1	0.021978	-0.000316	-0.021908	25.100928	0.000000	-1.000000	-0.091230
0.150000	0.850000	0.050000	2	9	1	0.049889	-0.000429	-0.005786	25.142246	0.000000	-1.000000	-0.091607
0.250000	0.850000	0.050000	3	9	1	0.056784	0.000082	-0.001201	25.151120	0.000000	-1.000000	-0.092435
0.350000	0.850000	0.050000	4	9	1	0.057634	0.000513	-0.000496	25.155855	0.000000	-1.000000	-0.092617
0.450000	0.850000	0.050000	5	9	1	0.057003	0.000792	-0.000304	25.159744	0.000000	-1.000000	-0.092657
0.550000	0.850000	0.050000	6	9	1	0.055677	0.000966	-0.000114	25.162841	0.000000	-1.000000	-0.092640
0.650000	0.850000	0.050000	7	9	1	0.053775	0.001062	0.000081	25.165502	0.000000	-1.000000	-0.092581
0.750000	0.850000	0.050000	8	9	1	0.051119	0.001113	0.000550	25.168207	0.000000	-1.000000	-0.092492
0.850000	0.850000	0.050000	9	9	1	0.046797	0.000974	0.001917	25.172384	0.000000	-1.000000	-0.092362
0.950000	0.850000	0.050000	10	9	1	0.022018	0.000207	0.021792	25.467324	0.000000	-1.000000	-0.092145
1.000000	0.850000	0.050000	11	9	1	0.000000	0.000000	0.000000	40.000000	0.000000	1.000000	-0.092145
0.000000	0.950000	0.050000	0	10	1	0.000000	0.000000	0.000000	10.000000	0.000000	1.000000	-0.091209
0.050000	0.950000	0.050000	1	10	1	0.022480	-0.000193	-0.022674	25.130444	0.000000	-1.000000	-0.091209
0.150000	0.950000	0.050000	2	10	1	0.051162	-0.000288	-0.006489	25.175115	0.000000	-1.000000	-0.091592
0.250000	0.950000	0.050000	3	10	1	0.058479	0.000161	-0.000955	25.182512	0.000000	-1.000000	-0.092482
0.350000	0.950000	0.050000	4	10	1	0.059405	0.000560	0.000750	25.184581	0.000000	-1.000000	-0.092665
0.450000	0.950000	0.050000	5	10	1	0.058589	0.000807	0.001434	25.186466	0.000000	-1.000000	-0.092689
0.550000	0.950000	0.050000	6	10	1	0.057018	0.000943	0.001888	25.188277	0.000000	-1.000000	-0.092661
0.650000	0.950000	0.050000	7	10	1	0.054800	0.001038	0.002311	25.190063	0.000000	-1.000000	-0.092598
0.750000	0.950000	0.050000	8	10	1	0.051667	0.001062	0.002922	25.191890	0.000000	-1.000000	-0.092502
0.850000	0.950000	0.050000	9	10	1	0.046641	0.000909	0.004075	25.195260	0.000000	-1.000000	-0.092354
0.950000	0.950000	0.050000	10	10	1	0.021737	0.000217	0.021954	25.492358	0.000000	-1.000000	-0.092116
1.000000	0.950000	0.050000	11	10	1	0.000000	0.000000	0.000000	40.000000	0.000000	1.000000	-0.092116
0.000000	1.000000	0.050000	0	11	1	0.000000	0.000000	0.000000	10.000000	0.000000	1.000000	0.000000
0.050000	1.000000	0.050000	1	11	1	0.000000	0.000000	0.000000	25.130447	0.000000	1.000000	-0.091209
0.150000	1.000000	0.050000	2	11	1	0.000000	0.000000	0.000000	25.175119	0.000000	1.000000	-0.091592
0.250000	1.000000	0.050000	3	11	1	0.000000	0.000000	0.000000	25.182515	0.000000	1.000000	-0.092482
0.350000	1.000000	0.050000	4	11	1	0.000000	0.000000	0.000000	25.184585	0.000000	1.000000	-0.092665
0.450000	1.000000	0.050000	5	11	1	0.000000	0.000000	0.000000	25.186470	0.000000	1.000000	-0.092689
0.550000	1.000000	0.050000	6	11	1	0.000000	0.000000	0.000000	25.188280	0.000000	1.000000	-0.092661
0.650000	1.000000	0.050000	7	11	1	0.000000	0.000000	0.000000	25.190066	0.000000	1.000000	-0.092598
0.750000	1.000000	0.050000	8	11	1	0.000000	0.000000	0.000000	25.191894	0.000000	1.000000	-0.092502
0.850000	1.000000	0.050000	9	11	1	0.000000	0.000000	0.000000	25.195264	0.000000	1.000000	-0.092354
0.950000	1.000000	0.050000	10	11	1	0.000000	0.000000	0.000000	25.492362	0.000000	1.000000	-0.092116
1.000000	1.000000	0.050000	11	11	1	0.000000	0.000000	0.000000	40.000000	0.000000	1.000000	0.000000
0.000000	0.000000	0.150000	0	0	2	0.000000	0.000000	0.000000	10.000000	0.000000	1.000000	0.000000
0.050000	0.000000	0.150000	1	0	2	0.000000	0.000000	0.000000	25.419168	0.000000	1.000000	-0.074006
0.150000	0.000000	0.150000	2	0	2	0.000000	0.000000	0.000000	25.506697	0.000000	1.000000	-0.074475
0.250000	0.000000	0.150000	3	0	2	0.000000	0.000000	0.000000	25.483416	0.000000	1.000000	-0.074605
0.350000	0.000000	0.150000	4	0	2	0.000000	0.000000	0.000000	25.433985	0.000000	1.000000	-0.074501
0.450000	0.000000	0.150000	5	0	2	0.000000	0.000000	0.000000	25.401194	0.000000	1.000000	-0.074440
0.550000	0.000000	0.150000	6	0	2	0.000000	0.000000	0.000000	25.379091	0.000000	1.000000	-0.074385
0.650000	0.000000	0.150000	7	0	2	0.000000	0.000000	0.000000	25.361519	0.000000	1.000000	-0.074313
0.750000	0.000000	0.150000	8	0	2	0.000000	0.000000	0.000000	25.342905	0.000000	1.000000	-0.074223
0.850000	0.000000	0.150000	9	0	2	0.000000	0.000000	0.000000	25.316208	0.000000	1.000000	-0.074091
0.950000	0.000000	0.150000	10	0	2	0.000000	0.000000	0.000000	25.570451	0.000000	1.000000	-0.073326
1.000000	0.000000	0.150000	11	0	2	0.000000	0.000000	0.000000	40.000000	0.000000	1.000000	0.000000
0.000000	0.050000	0.150000	0	1	2	0.000000	0.000000	0.000000	10.000000	0.000000	1.000000	-0.074006