TITLE = "dt=0.100000s, t=126.000000s, nu=0.000015, Lx=1.000000, Ly=1.000000, Lz=1.000000, Nx=12, Ny=12, Nz=12 "
VARIABLES =X, Y, Z, I, J, K, U, V, W, T, Xi, FlagP, P 
ZONE F=POINT, I=12, J=12, K=12
0.000000	0.000000	0.000000	0	0	0	0.000000	0.000000	0.000000	9.999994	0.000000	1.000000	0.000000
0.050000	0.000000	0.000000	1	0	0	0.000000	0.000000	0.000000	9.999994	0.000000	1.000000	0.000000
0.150000	0.000000	0.000000	2	0	0	0.000000	0.000000	0.000000	9.999994	0.000000	1.000000	0.000000
0.250000	0.000000	0.000000	3	0	0	0.000000	0.000000	0.000000	9.999994	0.000000	1.000000	0.000000
0.350000	0.000000	0.000000	4	0	0	0.000000	0.000000	0.000000	9.999994	0.000000	1.000000	0.000000
0.450000	0.000000	0.000000	5	0	0	0.000000	0.000000	0.000000	9.999994	0.000000	1.000000	0.000000
0.550000	0.000000	0.000000	6	0	0	0.000000	0.000000	0.000000	9.999994	0.000000	1.000000	0.000000
0.650000	0.000000	0.000000	7	0	0	0.000000	0.000000	0.000000	9.999994	0.000000	1.000000	0.000000
0.750000	0.000000	0.000000	8	0	0	0.000000	0.000000	0.000000	9.999994	0.000000	1.000000	0.000000
0.850000	0.000000	0.000000	9	0	0	0.000000	0.000000	0.000000	9.999994	0.000000	1.000000	0.000000
0.950000	0.000000	0.000000	10	0	0	0.000000	0.000000	0.000000	9.999994	0.000000	1.000000	0.000000
1.000000	0.000000	0.000000	11	0	0	0.000000	0.000000	0.000000	9.999994	0.000000	1.000000	0.000000
0.000000	0.050000	0.000000	0	1	0	0.000000	0.000000	0.000000	9.999994	0.000000	1.000000	0.000000
0.050000	0.050000	0.000000	1	1	0	0.000000	0.000000	0.000000	9.999994	0.099830	1.000000	6.424768
0.150000	0.050000	0.000000	2	1	0	0.000000	0.000000	0.000000	9.999994	0.000000	1.000000	6.424730
0.250000	0.050000	0.000000	3	1	0	0.000000	0.000000	0.000000	9.999994	0.000000	1.000000	6.424646
0.350000	0.050000	0.000000	4	1	0	0.000000	0.000000	0.000000	9.999994	0.000000	1.000000	6.424568
0.450000	0.050000	0.000000	5	1	0	0.000000	0.000000	0.000000	9.999994	0.000000	1.000000	6.424569
0.550000	0.050000	0.000000	6	1	0	0.000000	0.000000	0.000000	9.999994	0.000000	1.000000	6.424717
0.650000	0.050000	0.000000	7	1	0	0.000000	0.000000	0.000000	9.999994	0.000000	1.000000	6.425060
0.750000	0.050000	0.000000	8	1	0	0.000000	0.000000	0.000000	9.999994	0.000000	1.000000	6.425553
0.850000	0.050000	0.000000	9	1	0	0.000000	0.000000	0.000000	9.999994	0.000000	1.000000	6.425940
0.950000	0.050000	0.000000	10	1	0	0.000000	0.000000	0.000000	9.999994	0.000000	1.000000	6.426356
1.000000	0.050000	0.000000	11	1	0	0.000000	0.000000	0.000000	9.999994	0.000000	1.000000	0.000000
0.000000	0.150000	0.000000	0	2	0	0.000000	0.000000	0.000000	9.999994	0.000000	1.000000	0.000000
0.050000	0.150000	0.000000	1	2	0	0.000000	0.000000	0.000000	9.999994	0.099794	1.000000	6.424791
0.150000	0.150000	0.000000	2	2	0	0.000000	0.000000	0.000000	9.999994	0.000000	1.000000	6.424726
0.250000	0.150000	0.000000	3	2	0	0.000000	0.000000	0.000000	9.999994	0.000000	1.000000	6.424635
0.350000	0.150000	0.000000	4	2	0	0.000000	0.000000	0.000000	9.999994	0.000000	1.000000	6.424559
0.450000	0.150000	0.000000	5	2	0	0.000000	0.000000	0.000000	9.999994	0.000000	1.000000	6.424562
0.550000	0.150000	0.000000	6	2	0	0.000000	0.000000	0.000000	9.999994	0.000000	1.000000	6.424711
0.650000	0.150000	0.000000	7	2	0	0.000000	0.000000	0.000000	9.999994	0.000000	1.000000	6.425056
0.750000	0.150000	0.000000	8	2	0	0.000000	0.000000	0.000000	9.999994	0.000000	1.000000	6.425556
0.850000	0.150000	0.000000	9	2	0	0.000000	0.000000	0.000000	9.999994	0.000000	1.000000	6.425971
0.950000	0.150000	0.000000	10	2	0	0.000000	0.000000	0.000000	9.999994	0.000000	1.000000	6.426414
1.000000	0.150000	0.000000	11	2	0	0.000000	0.000000	0.000000	9.999994	0.000000	1.000000	0.000000
0.000000	0.250000	0.000000	0	3	0	0.000000	0.000000	0.000000	9.999994	0.000000	1.000000	0.000000
0.050000	0.250000	0.000000	1	3	0	0.000000	0.000000	0.000000	9.999994	0.099822	1.000000	6.424797
0.150000	0.250000	0.000000	2	3	0	0.000000	0.000000	0.000000	9.999994	0.000000	1.000000	6.424729
0.250000	0.250000	0.000000	3	3	0	0.000000	0.000000	0.000000	9.999994	0.000000	1.000000	6.424633
0.350000	0.250000	0.000000	4	3	0	0.000000	0.000000	0.000000	9.999994	0.000000	1.000000	6.424554
0.450000	0.250000	0.000000	5	3	0	0.000000	0.000000	0.000000	9.999994	0.000000	1.000000	6.424558
0.550000	0.250000	0.000000	6	3	0	0.000000	0.000000	0.000000	9.999994	0.000000	1.000000	6.424709
0.650000	0.250000	0.000000	7	3	0	0.000000	0.000000	0.000000	9.999994	0.000000	1.000000	6.425056
0.750000	0.250000	0.000000	8	3	0	0.000000	0.000000	0.000000	9.999994	0.000000	1.000000	6.425552
0.850000	0.250000	0.000000	9	3	0	0.000000	0.000000	0.000000	9.999994	0.000000	1.000000	6.425941
0.950000	0.250000	0.000000	10	3	0	0.000000	0.000000	0.000000	9.999994	0.000000	1.000000	6.426362
1.000000	0.250000	0.000000	11	3	0	0.000000	0.000000	0.000000	9.999994	0.000000	1.000000	0.000000
0.000000	0.350000	0.000000	0	4	0	0.000000	0.000000	0.000000	9.999994	0.000000	1.000000	0.000000
0.050000	0.350000	0.000000	1	4	0	0.000000	0.000000	0.000000	9.999994	0.099830	1.000000	6.424798
0.150000	0.350000	0.000000	2	4	0	0.000000	0.000000	0.000000	9.999994	0.000000	1.000000	6.424731
0.250000	0.350000	0.000000	3	4	0	0.000000	0.000000	0.000000	9.999994	0.000000	1.000000	6.424632
0.350000	0.350000	0.000000	4	4	0	0.000000	0.000000	0.000000	9.999994	0.000000	1.000000	6.424552
0.450000	0.350000	0.000000	5	4	0	0.000000	0.000000	0.000000	9.999994	0.000000	1.000000	6.424556
0.550000	0.350000	0.000000	6	4	0	0.000000	0.000000	0.000000	9.999994	0.000000	1.000000	6.424709
0.650000	0.350000	0.000000	7	4	0	0.000000	0.000000	0.000000	9.999994	0.000000	1.000000	6.425061
0.750000	0.350000	0.000000	8	4	0	0.000000	0.000000	0.000000	9.999994	0.000000	1.000000	6.425572
0.850000	0.350000	0.000000	9	4	0	0.000000	0.000000	0.000000	9.999994	0.000000	1.000000	6.425992
0.950000	0.350000	0.000000	10	4	0	0.000000	0.000000	0.000000	9.999994	0.000000	1.000000	6.426438
1.000000	0.350000	0.000000	11	4	0	0.000000	0.000000	0.000000	9.999994	0.000000	1.000000	0.000000
0.000000	0.450000	0.000000	0	5	0	0.000000	0.000000	0.000000	9.999994	0.000000	1.000000	0.000000
0.050000	0.450000	0.000000	1	5	0	0.000000	0.000000	0.000000	9.999994	0.099830	1.000000	6.424798
0.150000	0.450000	0.000000	2	5	0	0.000000	0.000000	0.000000	9.999994	0.000000	1.000000	6.424732
0.250000	0.450000	0.000000	3	5	0	0.000000	0.000000	0.000000	9.999994	0.000000	1.000000	6.424633
0.350000	0.450000	0.000000	4	5	0	0.000000	0.000000	0.000000	9.999994	0.000000	1.000000	6.424551
0.450000	0.450000	0.000000	5	5	0	0.000000	0.000000	0.000000	9.999994	0.000000	1.000000	6.424555
0.550000	0.450000	0.000000	6	5	0	0.000000	0.000000	0.000000	9.999994	0.000000	1.000000	6.424710
0.650000	0.450000	0.000000	7	5	0	0.000000	0.000000	0.000000	9.999994	0.000000	1.000000	6.425065
0.750000	0.450000	0.000000	8	5	0	0.000000	0.000000	0.000000	9.999994	0.000000	1.000000	6.425577
0.850000	0.450000	0.000000	9	5	0	0.000000	0.000000	0.000000	9.999994	0.000000	1.000000	6.425979
0.950000	0.450000	0.000000	10	5	0	0.000000	0.000000	0.000000	9.999994	0.000000	1.000000	6.426405
1.000000	0.450000	0.000000	11	5	0	0.000000	0.000000	0.000000	9.999994	0.000000	1.000000	0.000000
0.000000	0.550000	0.000000	0	6	0	0.000000	0.000000	0.000000	9.999994	0.000000	1.000000	0.000000
0.050000	0.550000	0.000000	1	6	0	0.000000	0.000000	0.000000	9.999994	0.099831	1.000000	6.424798
0.150000	0.550000	0.000000	2	6	0	0.000000	0.000000	0.000000	9.999994	0.000000	1.000000	6.424730
0.250000	0.550000	0.000000	3	6	0	0.000000	0.000000	0.000000	9.999994	0.000000	1.000000	6.424631
0.350000	0.550000	0.000000	4	6	0	0.000000	0.000000	0.000000	9.999994	0.000000	1.000000	6.424551
0.450000	0.550000	0.000000	5	6	0	0.000000	0.000000	0.000000	9.999994	0.000000	1.000000	6.424555
0.550000	0.550000	0.000000	6	6	0	0.000000	0.000000	0.000000	9.999994	0.000000	1.000000	6.424709
0.650000	0.550000	0.000000	7	6	0	0.000000	0.000000	0.000000	9.999994	0.000000	1.000000	6.425063
0.750000	0.550000	0.000000	8	6	0	0.000000	0.000000	0.000000	9.999994	0.000000	1.000000	6.425570
0.850000	0.550000	0.000000	9	6	0	0.000000	0.000000	0.000000	9.999994	0.000000	1.000000	6.425974
0.950000	0.550000	0.000000	10	6	0	0.000000	0.000000	0.000000	9.999994	0.000000	1.000000	6.426400
1.000000	0.550000	0.000000	11	6	0	0.000000	0.000000	0.000000	9.999994	0.000000	1.000000	0.000000
0.000000	0.650000	0.000000	0	7	0	0.000000	0.000000	0.000000	9.999994	0.000000	1.000000	0.000000
0.050000	0.650000	0.000000	1	7	0	0.000000	0.000000	0.000000	9.999994	0.099829	1.000000	6.424797
0.150000	0.650000	0.000000	2	7	0	0.000000	0.000000	0.000000	9.999994	0.000000	1.000000	6.424729
0.250000	0.650000	0.000000	3	7	0	0.000000	0.000000	0.000000	9.999994	0.000000	1.000000	6.424630
0.350000	0.650000	0.000000	4	7	0	0.000000	0.000000	0.000000	9.999994	0.000000	1.000000	6.424551
0.450000	0.650000	0.000000	5	7	0	0.000000	0.000000	0.000000	9.999994	0.000000	1.000000	6.424555
0.550000	0.650000	0.000000	6	7	0	0.000000	0.000000	0.000000	9.999994	0.000000	1.000000	6.424710
0.650000	0.650000	0.000000	7	7	0	0.000000	0.000000	0.000000	9.999994	0.000000	1.000000	6.425064
0.750000	0.650000	0.000000	8	7	0	0.000000	0.000000	0.000000	9.999994	0.000000	1.000000	6.425576
0.850000	0.650000	0.000000	9	7	0	0.000000	0.000000	0.000000	9.999994	0.000000	1.000000	6.425987
0.950000	0.650000	0.000000	10	7	0	0.000000	0.000000	0.000000	9.999994	0.000000	1.000000	6.426415
1.000000	0.650000	0.000000	11	7	0	0.000000	0.000000	0.000000	9.999994	0.000000	1.000000	0.000000
0.000000	0.750000	0.000000	0	8	0	0.000000	0.000000	0.000000	9.999994	0.000000	1.000000	0.000000
0.050000	0.750000	0.000000	1	8	0	0.000000	0.000000	0.000000	9.999994	0.099822	1.000000	6.424795
0.150000	0.750000	0.000000	2	8	0	0.000000	0.000000	0.000000	9.999994	0.000000	1.000000	6.424726
0.250000	0.750000	0.000000	3	8	0	0.000000	0.000000	0.000000	9.999994	0.000000	1.000000	6.424629
0.350000	0.750000	0.000000	4	8	0	0.000000	0.000000	0.000000	9.999994	0.000000	1.000000	6.424552
0.450000	0.750000	0.000000	5	8	0	0.000000	0.000000	0.000000	9.999994	0.000000	1.000000	6.424557
0.550000	0.750000	0.000000	6	8	0	0.000000	0.000000	0.000000	9.999994	0.000000	1.000000	6.424710
0.650000	0.750000	0.000000	7	8	0	0.000000	0.000000	0.000000	9.999994	0.000000	1.000000	6.425061
0.750000	0.750000	0.000000	8	8	0	0.000000	0.000000	0.000000	9.999994	0.000000	1.000000	6.425564
0.850000	0.750000	0.000000	9	8	0	0.000000	0.000000	0.000000	9.999994	0.000000	1.000000	6.425960
0.950000	0.750000	0.000000	10	8	0	0.000000	0.000000	0.000000	9.999994	0.000000	1.000000	6.426375
1.000000	0.750000	0.000000	11	8	0	0.000000	0.000000	0.000000	9.999994	0.000000	1.000000	0.000000
0.000000	0.850000	0.000000	0	9	0	0.000000	0.000000	0.000000	9.999994	0.000000	1.000000	0.000000
0.050000	0.850000	0.000000	1	9	0	0.000000	0.000000	0.000000	9.999994	0.099795	1.000000	6.424788
0.150000	0.850000	0.000000	2	9	0	0.000000	0.000000	0.000000	9.999994	0.000000	1.000000	6.424722
0.250000	0.850000	0.000000	3	9	0	0.000000	0.000000	0.000000	9.999994	0.000000	1.000000	6.424631
0.350000	0.850000	0.000000	4	9	0	0.000000	0.000000	0.000000	9.999994	0.000000	1.000000	6.424555
0.450000	0.850000	0.000000	5	9	0	0.000000	0.000000	0.000000	9.999994	0.000000	1.000000	6.424560
0.550000	0.850000	0.000000	6	9	0	0.000000	0.000000	0.000000	9.999994	0.000000	1.000000	6.424712
0.650000	0.850000	0.000000	7	9	0	0.000000	0.000000	0.000000	9.999994	0.000000	1.000000	6.425060
0.750000	0.850000	0.000000	8	9	0	0.000000	0.000000	0.000000	9.999994	0.000000	1.000000	6.425559
0.850000	0.850000	0.000000	9	9	0	0.000000	0.000000	0.000000	9.999994	0.000000	1.000000	6.425963
0.950000	0.850000	0.000000	10	9	0	0.000000	0.000000	0.000000	9.999994	0.000000	1.000000	6.426391
1.000000	0.850000	0.000000	11	9	0	0.000000	0.000000	0.000000	9.999994	0.000000	1.000000	0.000000
0.000000	0.950000	0.000000	0	10	0	0.000000	0.000000	0.000000	9.999994	0.000000	1.000000	0.000000
0.050000	0.950000	0.000000	1	10	0	0.000000	0.000000	0.000000	9.999994	0.099826	1.000000	6.424764
0.150000	0.950000	0.000000	2	10	0	0.000000	0.000000	0.000000	9.999994	0.000000	1.000000	6.424725
0.250000	0.950000	0.000000	3	10	0	0.000000	0.000000	0.000000	9.999994	0.000000	1.000000	6.424640
0.350000	0.950000	0.000000	4	10	0	0.000000	0.000000	0.000000	9.999994	0.000000	1.000000	6.424563
0.450000	0.950000	0.000000	5	10	0	0.000000	0.000000	0.000000	9.999994	0.000000	1.000000	6.424565
0.550000	0.950000	0.000000	6	10	0	0.000000	0.000000	0.000000	9.999994	0.000000	1.000000	6.424717
0.650000	0.950000	0.000000	7	10	0	0.000000	0.000000	0.000000	9.999994	0.000000	1.000000	6.425066
0.750000	0.950000	0.000000	8	10	0	0.000000	0.000000	0.000000	9.999994	0.000000	1.000000	6.425569
0.850000	0.950000	0.000000	9	10	0	0.000000	0.000000	0.000000	9.999994	0.000000	1.000000	6.425960
0.950000	0.950000	0.000000	10	10	0	0.000000	0.000000	0.000000	9.999994	0.000000	1.000000	6.426374
1.000000	0.950000	0.000000	11	10	0	0.000000	0.000000	0.000000	9.999994	0.000000	1.000000	0.000000
0.000000	1.000000	0.000000	0	11	0	0.000000	0.000000	0.000000	9.999994	0.000000	1.000000	0.000000
0.050000	1.000000	0.000000	1	11	0	0.000000	0.000000	0.000000	9.999994	0.000000	1.000000	0.000000
0.150000	1.000000	0.000000	2	11	0	0.000000	0.000000	0.000000	9.999994	0.000000	1.000000	0.000000
0.250000	1.000000	0.000000	3	11	0	0.000000	0.000000	0.000000	9.999994	0.000000	1.000000	0.000000
0.350000	1.000000	0.000000	4	11	0	0.000000	0.000000	0.000000	9.999994	0.000000	1.000000	0.000000
0.450000	1.000000	0.000000	5	11	0	0.000000	0.000000	0.000000	9.999994	0.000000	1.000000	0.000000
0.550000	1.000000	0.000000	6	11	0	0.000000	0.000000	0.000000	9.999994	0.000000	1.000000	0.000000
0.650000	1.000000	0.000000	7	11	0	0.000000	0.000000	0.000000	9.999994	0.000000	1.000000	0.000000
0.750000	1.000000	0.000000	8	11	0	0.000000	0.000000	0.000000	9.999994	0.000000	1.000000	0.000000
0.850000	1.000000	0.000000	9	11	0	0.000000	0.000000	0.000000	9.999994	0.000000	1.000000	0.000000
0.950000	1.000000	0.000000	10	11	0	0.000000	0.000000	0.000000	9.999994	0.000000	1.000000	0.000000
1.000000	1.000000	0.000000	11	11	0	0.000000	0.000000	0.000000	9.999994	0.000000	1.000000	0.000000
0.000000	0.000000	0.050000	0	0	1	0.000000	0.000000	0.000000	9.999994	0.000000	1.000000	0.000000
0.050000	0.000000	0.050000	1	0	1	0.000000	0.000000	0.000000	9.999994	0.099830	1.000000	6.424768
0.150000	0.000000	0.050000	2	0	1	0.000000	0.000000	0.000000	9.999994	0.000000	1.000000	6.424730
0.250000	0.000000	0.050000	3	0	1	0.000000	0.000000	0.000000	9.999994	0.000000	1.000000	6.424646
0.350000	0.000000	0.050000	4	0	1	0.000000	0.000000	0.000000	9.999994	0.000000	1.000000	6.424568
0.450000	0.000000	0.050000	5	0	1	0.000000	0.000000	0.000000	9.999994	0.000000	1.000000	6.424569
0.550000	0.000000	0.050000	6	0	1	0.000000	0.000000	0.000000	9.999994	0.000000	1.000000	6.424717
0.650000	0.000000	0.050000	7	0	1	0.000000	0.000000	0.000000	9.999994	0.000000	1.000000	6.425060
0.750000	0.000000	0.050000	8	0	1	0.000000	0.000000	0.000000	9.999994	0.000000	1.000000	6.425553
0.850000	0.000000	0.050000	9	0	1	0.000000	0.000000	0.000000	9.999994	0.000000	1.000000	6.425940
0.950000	0.000000	0.050000	10	0	1	0.000000	0.000000	0.000000	9.999994	0.000000	1.000000	6.426356
1.000000	0.000000	0.050000	11	0	1	0.000000	0.000000	0.000000	9.999994	0.000000	1.000000	0.000000
0.000000	0.050000	0.050000	0	1	1	0.000000	0.000000	0.000000	9.999994	0.099830	1.000000	6.424768
0.050000	0.050000	0.050000	1	1	1	-0.002750	-0.001574	0.004141	10.000010	0.099967	-1.000000	6.424768
0.150000	0.050000	0.050000	2	1	1	-0.010317	0.000321	0.004145	9.999997	0.049377	-1.000000	6.424730
0.250000	0.050000	0.050000	3	1	1	-0.019329	0.000240	0.003632	10.000000	0.055380	-1.000000	6.424646
0.350000	0.050000	0.050000	4	1	1	-0.026565	0.000009	0.002718	10.000000	0.058477	-1.000000	6.424568
0.450000	0.050000	0.050000	5	1	1	-0.031114	-0.000142	0.001337	10.000000	0.060679	-1.000000	6.424569
0.550000	0.050000	0.050000	6	1	1	-0.032172	-0.000239	-0.000525	10.000000	0.062557	-1.000000	6.424717
0.650000	0.050000	0.050000	7	1	1	-0.028471	-0.000353	-0.003211	10.000000	0.064338	-1.000000	6.425060
0.750000	0.050000	0.050000	8	1	1	-0.018270	-0.000541	-0.006723	10.000000	0.066079	-1.000000	6.425553
0.850000	0.050000	0.050000	9	1	1	-0.000863	-0.000939	-0.009825	10.000000	0.067662	-1.000000	6.425940
0.950000	0.050000	0.050000	10	1	1	0.046949	-0.001366	0.000866	10.000000	0.066690	-1.000000	6.426356
1.000000	0.050000	0.050000	11	1	1	0.084304	0.000000	0.000000	10.000000	0.066690	2.000000	6.426356
0.000000	0.150000	0.050000	0	2	1	0.000000	0.000000	0.000000	9.999994	0.099794	1.000000	6.424791
0.050000	0.150000	0.050000	1	2	1	-0.005522	-0.002227	0.004252	9.999997	0.099893	-1.000000	6.424791
0.150000	0.150000	0.050000	2	2	1	-0.015021	0.000287	0.003847	9.999974	0.064964	-1.000000	6.424726
0.250000	0.150000	0.050000	3	2	1	-0.022498	0.000372	0.003164	10.000000	0.068257	-1.000000	6.424635
0.350000	0.150000	0.050000	4	2	1	-0.028658	0.000107	0.002132	9.999998	0.070489	-1.000000	6.424559
0.450000	0.150000	0.050000	5	2	1	-0.032606	-0.000106	0.000670	9.999998	0.072102	-1.000000	6.424562
0.550000	0.150000	0.050000	6	2	1	-0.033299	-0.000248	-0.001264	9.999999	0.073507	-1.000000	6.424711
0.650000	0.150000	0.050000	7	2	1	-0.029421	-0.000378	-0.004053	9.999999	0.074884	-1.000000	6.425056
0.750000	0.150000	0.050000	8	2	1	-0.019391	-0.000552	-0.007712	9.999999	0.076396	-1.000000	6.425556
0.850000	0.150000	0.050000	9	2	1	-0.002839	-0.000885	-0.011228	9.999999	0.077931	-1.000000	6.425971
0.950000	0.150000	0.050000	10	2	1	0.044335	-0.000800	-0.002549	10.000000	0.077313	-1.000000	6.426414
1.000000	0.150000	0.050000	11	2	1	0.081704	0.000000	0.000000	10.000000	0.077313	2.000000	6.426414
0.000000	0.250000	0.050000	0	3	1	0.000000	0.000000	0.000000	9.999994	0.099822	1.000000	6.424797
0.050000	0.250000	0.050000	1	3	1	-0.004977	-0.000970	0.004315	10.000000	0.099914	-1.000000	6.424797
0.150000	0.250000	0.050000	2	3	1	-0.014312	-0.000173	0.004021	10.000000	0.066830	-1.000000	6.424729
0.250000	0.250000	0.050000	3	3	1	-0.022291	0.000066	0.003402	10.000000	0.069843	-1.000000	6.424633
0.350000	0.250000	0.050000	4	3	1	-0.028570	0.000018	0.002426	10.000000	0.071735	-1.000000	6.424554
0.450000	0.250000	0.050000	5	3	1	-0.032502	-0.000077	0.001011	10.000000	0.073192	-1.000000	6.424558
0.550000	0.250000	0.050000	6	3	1	-0.033183	-0.000144	-0.000876	10.000000	0.074511	-1.000000	6.424709
0.650000	0.250000	0.050000	7	3	1	-0.029272	-0.000187	-0.003591	10.000000	0.075820	-1.000000	6.425056
0.750000	0.250000	0.050000	8	3	1	-0.019103	-0.000208	-0.007073	10.000000	0.077244	-1.000000	6.425552
0.850000	0.250000	0.050000	9	3	1	-0.002449	-0.000090	-0.010009	10.000000	0.078676	-1.000000	6.425941
0.950000	0.250000	0.050000	10	3	1	0.044712	-0.000216	0.000771	10.000000	0.077802	-1.000000	6.426362
1.000000	0.250000	0.050000	11	3	1	0.082069	0.000000	0.000000	10.000000	0.077802	2.000000	6.426362
0.000000	0.350000	0.050000	0	4	1	0.000000	0.000000	0.000000	9.999994	0.099830	1.000000	6.424798
0.050000	0.350000	0.050000	1	4	1	-0.004861	-0.000423	0.004339	10.000000	0.099923	-1.000000	6.424798
0.150000	0.350000	0.050000	2	4	1	-0.014226	-0.000157	0.003941	9.999998	0.067014	-1.000000	6.424731
0.250000	0.350000	0.050000	3	4	1	-0.022455	-0.000035	0.003218	10.000000	0.070108	-1.000000	6.424632
0.350000	0.350000	0.050000	4	4	1	-0.028886	-0.000028	0.002168	9.999999	0.072009	-1.000000	6.424552
0.450000	0.350000	0.050000	5	4	1	-0.032880	-0.000050	0.000707	9.999999	0.073485	-1.000000	6.424556
0.550000	0.350000	0.050000	6	4	1	-0.033567	-0.000057	-0.001220	10.000000	0.074828	-1.000000	6.424709
0.650000	0.350000	0.050000	7	4	1	-0.029628	-0.000050	-0.004017	10.000000	0.076160	-1.000000	6.425061
0.750000	0.350000	0.050000	8	4	1	-0.019353	-0.000005	-0.007731	10.000000	0.077629	-1.000000	6.425572
0.850000	0.350000	0.050000	9	4	1	-0.002051	0.000294	-0.011341	10.000000	0.079144	-1.000000	6.425992
0.950000	0.350000	0.050000	10	4	1	0.045682	-0.000052	-0.002094	10.000000	0.078481	-1.000000	6.426438
1.000000	0.350000	0.050000	11	4	1	0.083051	0.000000	0.000000	10.000000	0.078481	2.000000	6.426438
0.000000	0.450000	0.050000	0	5	1	0.000000	0.000000	0.000000	9.999994	0.099830	1.000000	6.424798
0.050000	0.450000	0.050000	1	5	1	-0.004714	-0.000156	0.004344	10.000000	0.099922	-1.000000	6.424798
0.150000	0.450000	0.050000	2	5	1	-0.013921	-0.000046	0.004062	9.999998	0.066885	-1.000000	6.424732
0.250000	0.450000	0.050000	3	5	1	-0.022171	0.000001	0.003409	10.000000	0.070034	-1.000000	6.424633
0.350000	0.450000	0.050000	4	5	1	-0.028646	0.000007	0.002407	9.999999	0.071943	-1.000000	6.424551
0.450000	0.450000	0.050000	5	5	1	-0.032642	0.000005	0.000993	9.999999	0.073408	-1.000000	6.424555
0.550000	0.450000	0.050000	6	5	1	-0.033298	0.000011	-0.000883	10.000000	0.074730	-1.000000	6.424710
0.650000	0.450000	0.050000	7	5	1	-0.029254	0.000022	-0.003624	10.000000	0.076031	-1.000000	6.425065
0.750000	0.450000	0.050000	8	5	1	-0.018629	0.000033	-0.007256	10.000000	0.077438	-1.000000	6.425577
0.850000	0.450000	0.050000	9	5	1	-0.000358	0.000015	-0.010605	10.000000	0.078873	-1.000000	6.425979
0.950000	0.450000	0.050000	10	5	1	0.048072	0.000358	0.000528	10.000000	0.078058	-1.000000	6.426405
1.000000	0.450000	0.050000	11	5	1	0.085432	0.000000	0.000000	10.000000	0.078058	2.000000	6.426405
0.000000	0.550000	0.050000	0	6	1	0.000000	0.000000	0.000000	9.999994	0.099831	1.000000	6.424798
0.050000	0.550000	0.050000	1	6	1	-0.004817	0.000054	0.004351	10.000000	0.099924	-1.000000	6.424798
0.150000	0.550000	0.050000	2	6	1	-0.014153	0.000038	0.003984	9.999999	0.067019	-1.000000	6.424730
0.250000	0.550000	0.050000	3	6	1	-0.022418	0.000004	0.003272	10.000000	0.070144	-1.000000	6.424631
0.350000	0.550000	0.050000	4	6	1	-0.028871	-0.000017	0.002229	10.000000	0.072044	-1.000000	6.424551
0.450000	0.550000	0.050000	5	6	1	-0.032859	-0.000022	0.000780	10.000000	0.073510	-1.000000	6.424555
0.550000	0.550000	0.050000	6	6	1	-0.033528	-0.000023	-0.001129	10.000000	0.074841	-1.000000	6.424709
0.650000	0.550000	0.050000	7	6	1	-0.029565	-0.000035	-0.003905	10.000000	0.076158	-1.000000	6.425063
0.750000	0.550000	0.050000	8	6	1	-0.019304	-0.000060	-0.007573	10.000000	0.077613	-1.000000	6.425570
0.850000	0.550000	0.050000	9	6	1	-0.002548	-0.000124	-0.010967	10.000000	0.079123	-1.000000	6.425974
0.950000	0.550000	0.050000	10	6	1	0.044660	-0.000251	-0.001068	10.000000	0.078366	-1.000000	6.426400
1.000000	0.550000	0.050000	11	6	1	0.082020	0.000000	0.000000	10.000000	0.078366	2.000000	6.426400
0.000000	0.650000	0.050000	0	7	1	0.000000	0.000000	0.000000	9.999994	0.099829	1.000000	6.424797
0.050000	0.650000	0.050000	1	7	1	-0.004846	0.000392	0.004346	10.000000	0.099922	-1.000000	6.424797
0.150000	0.650000	0.050000	2	7	1	-0.014188	0.000194	0.003996	9.999999	0.067016	-1.000000	6.424729
0.250000	0.650000	0.050000	3	7	1	-0.022407	0.000076	0.003302	10.000000	0.070096	-1.000000	6.424630
0.350000	0.650000	0.050000	4	7	1	-0.028817	0.000064	0.002275	10.000000	0.071989	-1.000000	6.424551
0.450000	0.650000	0.050000	5	7	1	-0.032767	0.000095	0.000834	10.000000	0.073449	-1.000000	6.424555
0.550000	0.650000	0.050000	6	7	1	-0.033392	0.000123	-0.001080	10.000000	0.074770	-1.000000	6.424710
0.650000	0.650000	0.050000	7	7	1	-0.029347	0.000161	-0.003864	10.000000	0.076073	-1.000000	6.425064
0.750000	0.650000	0.050000	8	7	1	-0.018831	0.000241	-0.007555	10.000000	0.077509	-1.000000	6.425576
0.850000	0.650000	0.050000	9	7	1	-0.000858	0.000416	-0.011081	10.000000	0.079002	-1.000000	6.425987
0.950000	0.650000	0.050000	10	7	1	0.047370	0.000530	-0.000862	10.000000	0.078265	-1.000000	6.426415
1.000000	0.650000	0.050000	11	7	1	0.084731	0.000000	0.000000	10.000000	0.078265	2.000000	6.426415
0.000000	0.750000	0.050000	0	8	1	0.000000	0.000000	0.000000	9.999994	0.099822	1.000000	6.424795
0.050000	0.750000	0.050000	1	8	1	-0.005010	0.000955	0.004320	10.000000	0.099915	-1.000000	6.424795
0.150000	0.750000	0.050000	2	8	1	-0.014388	0.000190	0.003995	9.999999	0.066889	-1.000000	6.424726
0.250000	0.750000	0.050000	3	8	1	-0.022372	-0.000052	0.003343	10.000000	0.069871	-1.000000	6.424629
0.350000	0.750000	0.050000	4	8	1	-0.028637	-0.000031	0.002348	10.000000	0.071750	-1.000000	6.424552
0.450000	0.750000	0.050000	5	8	1	-0.032547	0.000047	0.000925	10.000000	0.073205	-1.000000	6.424557
0.550000	0.750000	0.050000	6	8	1	-0.033189	0.000111	-0.000977	10.000000	0.074523	-1.000000	6.424710
0.650000	0.750000	0.050000	7	8	1	-0.029197	0.000159	-0.003728	10.000000	0.075830	-1.000000	6.425061
0.750000	0.750000	0.050000	8	8	1	-0.018826	0.000185	-0.007305	10.000000	0.077265	-1.000000	6.425564
0.850000	0.750000	0.050000	9	8	1	-0.001462	-0.000010	-0.010519	10.000000	0.078736	-1.000000	6.425960
0.950000	0.750000	0.050000	10	8	1	0.046260	0.000114	0.000134	10.000000	0.077892	-1.000000	6.426375
1.000000	0.750000	0.050000	11	8	1	0.083615	0.000000	0.000000	10.000000	0.077892	2.000000	6.426375
0.000000	0.850000	0.050000	0	9	1	0.000000	0.000000	0.000000	9.999994	0.099795	1.000000	6.424788
0.050000	0.850000	0.050000	1	9	1	-0.005487	0.002243	0.004268	10.000000	0.099894	-1.000000	6.424788
0.150000	0.850000	0.050000	2	9	1	-0.014975	-0.000200	0.003896	9.999999	0.065058	-1.000000	6.424722
0.250000	0.850000	0.050000	3	9	1	-0.022471	-0.000321	0.003224	10.000000	0.068280	-1.000000	6.424631
0.350000	0.850000	0.050000	4	9	1	-0.028620	-0.000087	0.002209	10.000000	0.070457	-1.000000	6.424555
0.450000	0.850000	0.050000	5	9	1	-0.032566	0.000108	0.000764	10.000000	0.072045	-1.000000	6.424560
0.550000	0.850000	0.050000	6	9	1	-0.033274	0.000239	-0.001157	10.000000	0.073444	-1.000000	6.424712
0.650000	0.850000	0.050000	7	9	1	-0.029413	0.000360	-0.003928	10.000000	0.074820	-1.000000	6.425060
0.750000	0.850000	0.050000	8	9	1	-0.019427	0.000528	-0.007546	10.000000	0.076326	-1.000000	6.425559
0.850000	0.850000	0.050000	9	9	1	-0.003269	0.000841	-0.010934	10.000000	0.077843	-1.000000	6.425963
0.950000	0.850000	0.050000	10	9	1	0.043542	0.000755	-0.001906	10.000000	0.077152	-1.000000	6.426391
1.000000	0.850000	0.050000	11	9	1	0.080903	0.000000	0.000000	10.000000	0.077152	2.000000	6.426391
0.000000	0.950000	0.050000	0	10	1	0.000000	0.000000	0.000000	9.999994	0.099826	1.000000	6.424764
0.050000	0.950000	0.050000	1	10	1	-0.002866	0.001577	0.004151	10.000000	0.099963	-1.000000	6.424764
0.150000	0.950000	0.050000	2	10	1	-0.010521	-0.000263	0.004130	10.000000	0.049698	-1.000000	6.424725
0.250000	0.950000	0.050000	3	10	1	-0.019477	-0.000226	0.003575	10.000000	0.055538	-1.000000	6.424640
0.350000	0.950000	0.050000	4	10	1	-0.026667	-0.000020	0.002642	10.000000	0.058609	-1.000000	6.424563
0.450000	0.950000	0.050000	5	10	1	-0.031186	0.000120	0.001254	10.000000	0.060809	-1.000000	6.424565
0.550000	0.950000	0.050000	6	10	1	-0.032208	0.000208	-0.000627	10.000000	0.062703	-1.000000	6.424717
0.650000	0.950000	0.050000	7	10	1	-0.028427	0.000306	-0.003362	10.000000	0.064506	-1.000000	6.425066
0.750000	0.950000	0.050000	8	10	1	-0.018038	0.000485	-0.006958	10.000000	0.066298	-1.000000	6.425569
0.850000	0.950000	0.050000	9	10	1	-0.000080	0.000969	-0.010256	10.000000	0.067979	-1.000000	6.425960
0.950000	0.950000	0.050000	10	10	1	0.048149	0.001049	0.000535	10.000000	0.066960	-1.000000	6.426374
1.000000	0.950000	0.050000	11	10	1	0.085503	0.000000	0.000000	10.000000	0.066960	2.000000	6.426374
0.000000	1.000000	0.050000	0	11	1	0.000000	0.000000	0.000000	9.999994	0.000000	1.000000	0.000000
0.050000	1.000000	0.050000	1	11	1	0.000000	0.000000	0.000000	9.999994	0.099826	1.000000	6.424764
0.150000	1.000000	0.050000	2	11	1	0.000000	0.000000	0.000000	9.999994	0.000000	1.000000	6.424725
0.250000	1.000000	0.050000	3	11	1	0.000000	0.000000	0.000000	9.999994	0.000000	1.000000	6.424640
0.350000	1.000000	0.050000	4	11	1	0.000000	0.000000	0.000000	9.999994	0.000000	1.000000	6.424563
0.450000	1.000000	0.050000	5	11	1	0.000000	0.000000	0.000000	9.999994	0.000000	1.000000	6.424565
0.550000	1.000000	0.050000	6	11	1	0.000000	0.000000	0.000000	9.999994	0.000000	1.000000	6.424717
0.650000	1.000000	0.050000	7	11	1	0.000000	0.000000	0.000000	9.999994	0.000000	1.000000	6.425066
0.750000	1.000000	0.050000	8	11	1	0.000000	0.000000	0.000000	9.999994	0.000000	1.000000	6.425569
0.850000	1.000000	0.050000	9	11	1	0.000000	0.000000	0.000000	9.999994	0.000000	1.000000	6.425960
0.950000	1.000000	0.050000	10	11	1	0.000000	0.000000	0.000000	9.999994	0.000000	1.000000	6.426374
1.000000	1.000000	0.050000	11	11	1	0.000000	0.000000	0.000000	9.999994	0.000000	1.000000	0.000000
0.000000	0.000000	0.150000	0	0	2	0.000000	0.000000	0.000000	9.999994	0.000000	1.000000	0.000000
0.050000	0.000000	0.150000	1	0	2	0.000000	0.000000	0.000000	9.999994	0.099967	1.000000	6.424755
0.150000	0.000000	0.150000	2	0	2	0.000000	0.000000	0.000000	9.999994	0.000000	1.000000	6.424708
0.250000	0.000000	0.150000	3	0	2	0.000000	0.000000	0.000000	9.999994	0.000000	1.000000	6.424596
0.350000	0.000000	0.150000	4	0	2	0.000000	0.000000	0.000000	9.999994	0.000000	1.000000	6.424474
0.450000	0.000000	0.150000	5	0	2	0.000000	0.000000	0.000000	9.999994	0.000000	1.000000	6.424421
0.550000	0.000000	0.150000	6	0	2	0.000000	0.000000	0.000000	9.999994	0.000000	1.000000	6.424489
0.650000	0.000000	0.150000	7	0	2	0.000000	0.000000	0.000000	9.999994	0.000000	1.000000	6.424736
0.750000	0.000000	0.150000	8	0	2	0.000000	0.000000	0.000000	9.999994	0.000000	1.000000	6.425157
0.850000	0.000000	0.150000	9	0	2	0.000000	0.000000	0.000000	9.999994	0.000000	1.000000	6.425767
0.950000	0.000000	0.150000	10	0	2	0.000000	0.000000	0.000000	9.999994	0.000000	1.000000	6.426015
1.000000	0.000000	0.150000	11	0	2	0.000000	0.000000	0.000000	9.999994	0.000000	1.000000	0.000000
0.000000	0.050000	0.150000	0	1	2	0.000000	0.000000	0.000000	9.999994	0.099967	1.000000	6.424755
0.050000	0.050000	0.150000	1	1	2	-0.003026	-0.001489	0.012614	10.000004	0.099986	-1.000000	6.424755
0.150000	0.050000	0.150000	2	1	2	-0.011517	0.000634	0.012769	9.999990	0.052071	-1.000000	6.424708
0.250000	0.050000	0.150000	3	1	2	-0.022101	0.000654	0.011404	10.000000	0.058694	-1.000000	6.424596
0.350000	0.050000	0.150000	4	1	2	-0.031247	0.000532	0.008619	9.999998	0.062195	-1.000000	6.424474