TITLE = "dt=0.100000s, t=1860.000000s, nu=0.000016, Lx=1.000000, Ly=1.000000, Lz=1.000000, Nx=12, Ny=12, Nz=12 "
VARIABLES =X, Y, Z, I, J, K, U, V, W, T, Xi, FlagP, P 
ZONE F=POINT, I=12, J=12, K=12
0.000000	0.000000	0.000000	0	0	0	0.000000	0.000000	0.000000	10.001660	0.000000	1.000000	0.000000
0.050000	0.000000	0.000000	1	0	0	0.000000	0.000000	0.000000	10.001660	0.000000	1.000000	0.000000
0.150000	0.000000	0.000000	2	0	0	0.000000	0.000000	0.000000	10.001660	0.000000	1.000000	0.000000
0.250000	0.000000	0.000000	3	0	0	0.000000	0.000000	0.000000	10.001660	0.000000	1.000000	0.000000
0.350000	0.000000	0.000000	4	0	0	0.000000	0.000000	0.000000	10.001660	0.000000	1.000000	0.000000
0.450000	0.000000	0.000000	5	0	0	0.000000	0.000000	0.000000	10.001660	0.000000	1.000000	0.000000
0.550000	0.000000	0.000000	6	0	0	0.000000	0.000000	0.000000	10.001660	0.000000	1.000000	0.000000
0.650000	0.000000	0.000000	7	0	0	0.000000	0.000000	0.000000	10.001660	0.000000	1.000000	0.000000
0.750000	0.000000	0.000000	8	0	0	0.000000	0.000000	0.000000	10.001660	0.000000	1.000000	0.000000
0.850000	0.000000	0.000000	9	0	0	0.000000	0.000000	0.000000	10.001660	0.000000	1.000000	0.000000
0.950000	0.000000	0.000000	10	0	0	0.000000	0.000000	0.000000	10.001660	0.000000	1.000000	0.000000
1.000000	0.000000	0.000000	11	0	0	0.000000	0.000000	0.000000	29.995060	0.000000	1.000000	0.000000
0.000000	0.050000	0.000000	0	1	0	0.000000	0.000000	0.000000	10.001659	0.000000	1.000000	0.000000
0.050000	0.050000	0.000000	1	1	0	0.000000	0.000000	0.000000	10.001708	0.000000	1.000000	0.093326
0.150000	0.050000	0.000000	2	1	0	0.000000	0.000000	0.000000	10.001708	0.000000	1.000000	0.093352
0.250000	0.050000	0.000000	3	1	0	0.000000	0.000000	0.000000	10.001708	0.000000	1.000000	0.093336
0.350000	0.050000	0.000000	4	1	0	0.000000	0.000000	0.000000	10.001708	0.000000	1.000000	0.093284
0.450000	0.050000	0.000000	5	1	0	0.000000	0.000000	0.000000	10.001708	0.000000	1.000000	0.093211
0.550000	0.050000	0.000000	6	1	0	0.000000	0.000000	0.000000	10.001708	0.000000	1.000000	0.093114
0.650000	0.050000	0.000000	7	1	0	0.000000	0.000000	0.000000	10.001708	0.000000	1.000000	0.092982
0.750000	0.050000	0.000000	8	1	0	0.000000	0.000000	0.000000	10.001708	0.000000	1.000000	0.092786
0.850000	0.050000	0.000000	9	1	0	0.000000	0.000000	0.000000	10.001708	0.000000	1.000000	0.092445
0.950000	0.050000	0.000000	10	1	0	0.000000	0.000000	0.000000	10.001708	0.000000	1.000000	0.092015
1.000000	0.050000	0.000000	11	1	0	0.000000	0.000000	0.000000	39.991760	0.000000	1.000000	0.000000
0.000000	0.150000	0.000000	0	2	0	0.000000	0.000000	0.000000	10.001659	0.000000	1.000000	0.000000
0.050000	0.150000	0.000000	1	2	0	0.000000	0.000000	0.000000	10.001708	0.000000	1.000000	0.093372
0.150000	0.150000	0.000000	2	2	0	0.000000	0.000000	0.000000	10.001708	0.000000	1.000000	0.093380
0.250000	0.150000	0.000000	3	2	0	0.000000	0.000000	0.000000	10.001708	0.000000	1.000000	0.093353
0.350000	0.150000	0.000000	4	2	0	0.000000	0.000000	0.000000	10.001708	0.000000	1.000000	0.093299
0.450000	0.150000	0.000000	5	2	0	0.000000	0.000000	0.000000	10.001708	0.000000	1.000000	0.093226
0.550000	0.150000	0.000000	6	2	0	0.000000	0.000000	0.000000	10.001708	0.000000	1.000000	0.093130
0.650000	0.150000	0.000000	7	2	0	0.000000	0.000000	0.000000	10.001708	0.000000	1.000000	0.093000
0.750000	0.150000	0.000000	8	2	0	0.000000	0.000000	0.000000	10.001708	0.000000	1.000000	0.092813
0.850000	0.150000	0.000000	9	2	0	0.000000	0.000000	0.000000	10.001708	0.000000	1.000000	0.092515
0.950000	0.150000	0.000000	10	2	0	0.000000	0.000000	0.000000	10.001708	0.000000	1.000000	0.092140
1.000000	0.150000	0.000000	11	2	0	0.000000	0.000000	0.000000	39.991760	0.000000	1.000000	0.000000
0.000000	0.250000	0.000000	0	3	0	0.000000	0.000000	0.000000	10.001659	0.000000	1.000000	0.000000
0.050000	0.250000	0.000000	1	3	0	0.000000	0.000000	0.000000	10.001708	0.000000	1.000000	0.093412
0.150000	0.250000	0.000000	2	3	0	0.000000	0.000000	0.000000	10.001708	0.000000	1.000000	0.093412
0.250000	0.250000	0.000000	3	3	0	0.000000	0.000000	0.000000	10.001708	0.000000	1.000000	0.093371
0.350000	0.250000	0.000000	4	3	0	0.000000	0.000000	0.000000	10.001708	0.000000	1.000000	0.093315
0.450000	0.250000	0.000000	5	3	0	0.000000	0.000000	0.000000	10.001708	0.000000	1.000000	0.093242
0.550000	0.250000	0.000000	6	3	0	0.000000	0.000000	0.000000	10.001708	0.000000	1.000000	0.093147
0.650000	0.250000	0.000000	7	3	0	0.000000	0.000000	0.000000	10.001708	0.000000	1.000000	0.093022
0.750000	0.250000	0.000000	8	3	0	0.000000	0.000000	0.000000	10.001708	0.000000	1.000000	0.092849
0.850000	0.250000	0.000000	9	3	0	0.000000	0.000000	0.000000	10.001708	0.000000	1.000000	0.092580
0.950000	0.250000	0.000000	10	3	0	0.000000	0.000000	0.000000	10.001708	0.000000	1.000000	0.092249
1.000000	0.250000	0.000000	11	3	0	0.000000	0.000000	0.000000	39.991760	0.000000	1.000000	0.000000
0.000000	0.350000	0.000000	0	4	0	0.000000	0.000000	0.000000	10.001659	0.000000	1.000000	0.000000
0.050000	0.350000	0.000000	1	4	0	0.000000	0.000000	0.000000	10.001708	0.000000	1.000000	0.093440
0.150000	0.350000	0.000000	2	4	0	0.000000	0.000000	0.000000	10.001708	0.000000	1.000000	0.093435
0.250000	0.350000	0.000000	3	4	0	0.000000	0.000000	0.000000	10.001708	0.000000	1.000000	0.093386
0.350000	0.350000	0.000000	4	4	0	0.000000	0.000000	0.000000	10.001708	0.000000	1.000000	0.093328
0.450000	0.350000	0.000000	5	4	0	0.000000	0.000000	0.000000	10.001708	0.000000	1.000000	0.093255
0.550000	0.350000	0.000000	6	4	0	0.000000	0.000000	0.000000	10.001708	0.000000	1.000000	0.093161
0.650000	0.350000	0.000000	7	4	0	0.000000	0.000000	0.000000	10.001708	0.000000	1.000000	0.093040
0.750000	0.350000	0.000000	8	4	0	0.000000	0.000000	0.000000	10.001708	0.000000	1.000000	0.092877
0.850000	0.350000	0.000000	9	4	0	0.000000	0.000000	0.000000	10.001708	0.000000	1.000000	0.092632
0.950000	0.350000	0.000000	10	4	0	0.000000	0.000000	0.000000	10.001708	0.000000	1.000000	0.092336
1.000000	0.350000	0.000000	11	4	0	0.000000	0.000000	0.000000	39.991760	0.000000	1.000000	0.000000
0.000000	0.450000	0.000000	0	5	0	0.000000	0.000000	0.000000	10.001659	0.000000	1.000000	0.000000
0.050000	0.450000	0.000000	1	5	0	0.000000	0.000000	0.000000	10.001708	0.000000	1.000000	0.093444
0.150000	0.450000	0.000000	2	5	0	0.000000	0.000000	0.000000	10.001708	0.000000	1.000000	0.093442
0.250000	0.450000	0.000000	3	5	0	0.000000	0.000000	0.000000	10.001708	0.000000	1.000000	0.093392
0.350000	0.450000	0.000000	4	5	0	0.000000	0.000000	0.000000	10.001708	0.000000	1.000000	0.093336
0.450000	0.450000	0.000000	5	5	0	0.000000	0.000000	0.000000	10.001708	0.000000	1.000000	0.093263
0.550000	0.450000	0.000000	6	5	0	0.000000	0.000000	0.000000	10.001708	0.000000	1.000000	0.093170
0.650000	0.450000	0.000000	7	5	0	0.000000	0.000000	0.000000	10.001708	0.000000	1.000000	0.093052
0.750000	0.450000	0.000000	8	5	0	0.000000	0.000000	0.000000	10.001708	0.000000	1.000000	0.092896
0.850000	0.450000	0.000000	9	5	0	0.000000	0.000000	0.000000	10.001708	0.000000	1.000000	0.092663
0.950000	0.450000	0.000000	10	5	0	0.000000	0.000000	0.000000	10.001708	0.000000	1.000000	0.092388
1.000000	0.450000	0.000000	11	5	0	0.000000	0.000000	0.000000	39.991760	0.000000	1.000000	0.000000
0.000000	0.550000	0.000000	0	6	0	0.000000	0.000000	0.000000	10.001659	0.000000	1.000000	0.000000
0.050000	0.550000	0.000000	1	6	0	0.000000	0.000000	0.000000	10.001708	0.000000	1.000000	0.093444
0.150000	0.550000	0.000000	2	6	0	0.000000	0.000000	0.000000	10.001708	0.000000	1.000000	0.093442
0.250000	0.550000	0.000000	3	6	0	0.000000	0.000000	0.000000	10.001708	0.000000	1.000000	0.093392
0.350000	0.550000	0.000000	4	6	0	0.000000	0.000000	0.000000	10.001708	0.000000	1.000000	0.093336
0.450000	0.550000	0.000000	5	6	0	0.000000	0.000000	0.000000	10.001708	0.000000	1.000000	0.093263
0.550000	0.550000	0.000000	6	6	0	0.000000	0.000000	0.000000	10.001708	0.000000	1.000000	0.093170
0.650000	0.550000	0.000000	7	6	0	0.000000	0.000000	0.000000	10.001708	0.000000	1.000000	0.093052
0.750000	0.550000	0.000000	8	6	0	0.000000	0.000000	0.000000	10.001708	0.000000	1.000000	0.092896
0.850000	0.550000	0.000000	9	6	0	0.000000	0.000000	0.000000	10.001708	0.000000	1.000000	0.092663
0.950000	0.550000	0.000000	10	6	0	0.000000	0.000000	0.000000	10.001708	0.000000	1.000000	0.092388
1.000000	0.550000	0.000000	11	6	0	0.000000	0.000000	0.000000	39.991760	0.000000	1.000000	0.000000
0.000000	0.650000	0.000000	0	7	0	0.000000	0.000000	0.000000	10.001659	0.000000	1.000000	0.000000
0.050000	0.650000	0.000000	1	7	0	0.000000	0.000000	0.000000	10.001708	0.000000	1.000000	0.093440
0.150000	0.650000	0.000000	2	7	0	0.000000	0.000000	0.000000	10.001708	0.000000	1.000000	0.093435
0.250000	0.650000	0.000000	3	7	0	0.000000	0.000000	0.000000	10.001708	0.000000	1.000000	0.093386
0.350000	0.650000	0.000000	4	7	0	0.000000	0.000000	0.000000	10.001708	0.000000	1.000000	0.093328
0.450000	0.650000	0.000000	5	7	0	0.000000	0.000000	0.000000	10.001708	0.000000	1.000000	0.093255
0.550000	0.650000	0.000000	6	7	0	0.000000	0.000000	0.000000	10.001708	0.000000	1.000000	0.093161
0.650000	0.650000	0.000000	7	7	0	0.000000	0.000000	0.000000	10.001708	0.000000	1.000000	0.093040
0.750000	0.650000	0.000000	8	7	0	0.000000	0.000000	0.000000	10.001708	0.000000	1.000000	0.092877
0.850000	0.650000	0.000000	9	7	0	0.000000	0.000000	0.000000	10.001708	0.000000	1.000000	0.092632
0.950000	0.650000	0.000000	10	7	0	0.000000	0.000000	0.000000	10.001708	0.000000	1.000000	0.092336
1.000000	0.650000	0.000000	11	7	0	0.000000	0.000000	0.000000	39.991760	0.000000	1.000000	0.000000
0.000000	0.750000	0.000000	0	8	0	0.000000	0.000000	0.000000	10.001659	0.000000	1.000000	0.000000
0.050000	0.750000	0.000000	1	8	0	0.000000	0.000000	0.000000	10.001708	0.000000	1.000000	0.093412
0.150000	0.750000	0.000000	2	8	0	0.000000	0.000000	0.000000	10.001708	0.000000	1.000000	0.093412
0.250000	0.750000	0.000000	3	8	0	0.000000	0.000000	0.000000	10.001708	0.000000	1.000000	0.093371
0.350000	0.750000	0.000000	4	8	0	0.000000	0.000000	0.000000	10.001708	0.000000	1.000000	0.093315
0.450000	0.750000	0.000000	5	8	0	0.000000	0.000000	0.000000	10.001708	0.000000	1.000000	0.093242
0.550000	0.750000	0.000000	6	8	0	0.000000	0.000000	0.000000	10.001708	0.000000	1.000000	0.093147
0.650000	0.750000	0.000000	7	8	0	0.000000	0.000000	0.000000	10.001708	0.000000	1.000000	0.093022
0.750000	0.750000	0.000000	8	8	0	0.000000	0.000000	0.000000	10.001708	0.000000	1.000000	0.092849
0.850000	0.750000	0.000000	9	8	0	0.000000	0.000000	0.000000	10.001708	0.000000	1.000000	0.092580
0.950000	0.750000	0.000000	10	8	0	0.000000	0.000000	0.000000	10.001708	0.000000	1.000000	0.092249
1.000000	0.750000	0.000000	11	8	0	0.000000	0.000000	0.000000	39.991760	0.000000	1.000000	0.000000
0.000000	0.850000	0.000000	0	9	0	0.000000	0.000000	0.000000	10.001659	0.000000	1.000000	0.000000
0.050000	0.850000	0.000000	1	9	0	0.000000	0.000000	0.000000	10.001708	0.000000	1.000000	0.093372
0.150000	0.850000	0.000000	2	9	0	0.000000	0.000000	0.000000	10.001708	0.000000	1.000000	0.093380
0.250000	0.850000	0.000000	3	9	0	0.000000	0.000000	0.000000	10.001708	0.000000	1.000000	0.093353
0.350000	0.850000	0.000000	4	9	0	0.000000	0.000000	0.000000	10.001708	0.000000	1.000000	0.093299
0.450000	0.850000	0.000000	5	9	0	0.000000	0.000000	0.000000	10.001708	0.000000	1.000000	0.093226
0.550000	0.850000	0.000000	6	9	0	0.000000	0.000000	0.000000	10.001708	0.000000	1.000000	0.093130
0.650000	0.850000	0.000000	7	9	0	0.000000	0.000000	0.000000	10.001708	0.000000	1.000000	0.093000
0.750000	0.850000	0.000000	8	9	0	0.000000	0.000000	0.000000	10.001708	0.000000	1.000000	0.092813
0.850000	0.850000	0.000000	9	9	0	0.000000	0.000000	0.000000	10.001708	0.000000	1.000000	0.092515
0.950000	0.850000	0.000000	10	9	0	0.000000	0.000000	0.000000	10.001708	0.000000	1.000000	0.092140
1.000000	0.850000	0.000000	11	9	0	0.000000	0.000000	0.000000	39.991760	0.000000	1.000000	0.000000
0.000000	0.950000	0.000000	0	10	0	0.000000	0.000000	0.000000	10.001659	0.000000	1.000000	0.000000
0.050000	0.950000	0.000000	1	10	0	0.000000	0.000000	0.000000	10.001708	0.000000	1.000000	0.093326
0.150000	0.950000	0.000000	2	10	0	0.000000	0.000000	0.000000	10.001708	0.000000	1.000000	0.093352
0.250000	0.950000	0.000000	3	10	0	0.000000	0.000000	0.000000	10.001708	0.000000	1.000000	0.093336
0.350000	0.950000	0.000000	4	10	0	0.000000	0.000000	0.000000	10.001708	0.000000	1.000000	0.093284
0.450000	0.950000	0.000000	5	10	0	0.000000	0.000000	0.000000	10.001708	0.000000	1.000000	0.093211
0.550000	0.950000	0.000000	6	10	0	0.000000	0.000000	0.000000	10.001708	0.000000	1.000000	0.093114
0.650000	0.950000	0.000000	7	10	0	0.000000	0.000000	0.000000	10.001708	0.000000	1.000000	0.092982
0.750000	0.950000	0.000000	8	10	0	0.000000	0.000000	0.000000	10.001708	0.000000	1.000000	0.092786
0.850000	0.950000	0.000000	9	10	0	0.000000	0.000000	0.000000	10.001708	0.000000	1.000000	0.092445
0.950000	0.950000	0.000000	10	10	0	0.000000	0.000000	0.000000	10.001708	0.000000	1.000000	0.092015
1.000000	0.950000	0.000000	11	10	0	0.000000	0.000000	0.000000	39.991760	0.000000	1.000000	0.000000
0.000000	1.000000	0.000000	0	11	0	0.000000	0.000000	0.000000	10.001660	0.000000	1.000000	0.000000
0.050000	1.000000	0.000000	1	11	0	0.000000	0.000000	0.000000	10.001660	0.000000	1.000000	0.000000
0.150000	1.000000	0.000000	2	11	0	0.000000	0.000000	0.000000	10.001660	0.000000	1.000000	0.000000
0.250000	1.000000	0.000000	3	11	0	0.000000	0.000000	0.000000	10.001660	0.000000	1.000000	0.000000
0.350000	1.000000	0.000000	4	11	0	0.000000	0.000000	0.000000	10.001660	0.000000	1.000000	0.000000
0.450000	1.000000	0.000000	5	11	0	0.000000	0.000000	0.000000	10.001660	0.000000	1.000000	0.000000
0.550000	1.000000	0.000000	6	11	0	0.000000	0.000000	0.000000	10.001660	0.000000	1.000000	0.000000
0.650000	1.000000	0.000000	7	11	0	0.000000	0.000000	0.000000	10.001660	0.000000	1.000000	0.000000
0.750000	1.000000	0.000000	8	11	0	0.000000	0.000000	0.000000	10.001660	0.000000	1.000000	0.000000
0.850000	1.000000	0.000000	9	11	0	0.000000	0.000000	0.000000	10.001660	0.000000	1.000000	0.000000
0.950000	1.000000	0.000000	10	11	0	0.000000	0.000000	0.000000	10.001660	0.000000	1.000000	0.000000
1.000000	1.000000	0.000000	11	11	0	0.000000	0.000000	0.000000	29.995060	0.000000	1.000000	0.000000
0.000000	0.000000	0.050000	0	0	1	0.000000	0.000000	0.000000	10.001659	0.000000	1.000000	0.000000
0.050000	0.000000	0.050000	1	0	1	0.000000	0.000000	0.000000	10.001660	0.000000	1.000000	0.093326
0.150000	0.000000	0.050000	2	0	1	0.000000	0.000000	0.000000	10.001660	0.000000	1.000000	0.093352
0.250000	0.000000	0.050000	3	0	1	0.000000	0.000000	0.000000	10.001660	0.000000	1.000000	0.093336
0.350000	0.000000	0.050000	4	0	1	0.000000	0.000000	0.000000	10.001660	0.000000	1.000000	0.093284
0.450000	0.000000	0.050000	5	0	1	0.000000	0.000000	0.000000	10.001660	0.000000	1.000000	0.093211
0.550000	0.000000	0.050000	6	0	1	0.000000	0.000000	0.000000	10.001660	0.000000	1.000000	0.093114
0.650000	0.000000	0.050000	7	0	1	0.000000	0.000000	0.000000	10.001660	0.000000	1.000000	0.092982
0.750000	0.000000	0.050000	8	0	1	0.000000	0.000000	0.000000	10.001660	0.000000	1.000000	0.092786
0.850000	0.000000	0.050000	9	0	1	0.000000	0.000000	0.000000	10.001660	0.000000	1.000000	0.092445
0.950000	0.000000	0.050000	10	0	1	0.000000	0.000000	0.000000	10.001660	0.000000	1.000000	0.092015
1.000000	0.000000	0.050000	11	0	1	0.000000	0.000000	0.000000	39.991760	0.000000	1.000000	0.000000
0.000000	0.050000	0.050000	0	1	1	0.000000	0.000000	0.000000	10.001659	0.000000	1.000000	0.093326
0.050000	0.050000	0.050000	1	1	1	0.002051	0.002535	-0.004586	13.441197	0.000000	-1.000000	0.093326
0.150000	0.050000	0.050000	2	1	1	0.004574	0.001822	-0.002295	13.325709	0.000000	-1.000000	0.093352
0.250000	0.050000	0.050000	3	1	1	0.006135	0.001926	-0.003014	13.322132	0.000000	-1.000000	0.093336
0.350000	0.050000	0.050000	4	1	1	0.008388	0.001866	-0.003032	13.322513	0.000000	-1.000000	0.093284
0.450000	0.050000	0.050000	5	1	1	0.010848	0.001789	-0.003084	13.327891	0.000000	-1.000000	0.093211
0.550000	0.050000	0.050000	6	1	1	0.013703	0.001717	-0.003277	13.343129	0.000000	-1.000000	0.093114
0.650000	0.050000	0.050000	7	1	1	0.017347	0.001641	-0.003724	13.372721	0.000000	-1.000000	0.092982
0.750000	0.050000	0.050000	8	1	1	0.022677	0.001445	-0.004692	13.420307	0.000000	-1.000000	0.092786
0.850000	0.050000	0.050000	9	1	1	0.031315	0.000618	-0.006009	13.470381	0.000000	-1.000000	0.092445
0.950000	0.050000	0.050000	10	1	1	0.018353	-0.002609	0.020963	13.909129	0.000000	-1.000000	0.092015
1.000000	0.050000	0.050000	11	1	1	0.000000	0.000000	0.000000	39.991760	0.000000	1.000000	0.092015
0.000000	0.150000	0.050000	0	2	1	0.000000	0.000000	0.000000	10.001659	0.000000	1.000000	0.093372
0.050000	0.150000	0.050000	1	2	1	0.002371	0.004830	-0.002132	13.348577	0.000000	-1.000000	0.093372
0.150000	0.150000	0.050000	2	2	1	0.005969	0.003396	-0.000979	13.314515	0.000000	-1.000000	0.093380
0.250000	0.150000	0.050000	3	2	1	0.008712	0.003491	-0.001155	13.305533	0.000000	-1.000000	0.093353
0.350000	0.150000	0.050000	4	2	1	0.011757	0.003360	-0.001156	13.300399	0.000000	-1.000000	0.093299
0.450000	0.150000	0.050000	5	2	1	0.014905	0.003168	-0.001208	13.300928	0.000000	-1.000000	0.093226
0.550000	0.150000	0.050000	6	2	1	0.018373	0.002949	-0.001363	13.310234	0.000000	-1.000000	0.093130
0.650000	0.150000	0.050000	7	2	1	0.022514	0.002657	-0.001668	13.330850	0.000000	-1.000000	0.093000
0.750000	0.150000	0.050000	8	2	1	0.027951	0.002028	-0.002283	13.366122	0.000000	-1.000000	0.092813
0.850000	0.150000	0.050000	9	2	1	0.035480	0.000178	-0.003327	13.417268	0.000000	-1.000000	0.092515
0.950000	0.150000	0.050000	10	2	1	0.019932	-0.005536	0.020250	13.903515	0.000000	-1.000000	0.092140
1.000000	0.150000	0.050000	11	2	1	0.000000	0.000000	0.000000	39.991760	0.000000	1.000000	0.092140
0.000000	0.250000	0.050000	0	3	1	0.000000	0.000000	0.000000	10.001659	0.000000	1.000000	0.093412
0.050000	0.250000	0.050000	1	3	1	0.002930	0.003772	-0.002111	13.259437	0.000000	-1.000000	0.093412
0.150000	0.250000	0.050000	2	3	1	0.007564	0.002678	-0.001234	13.277418	0.000000	-1.000000	0.093412
0.250000	0.250000	0.050000	3	3	1	0.010899	0.002662	-0.001165	13.277248	0.000000	-1.000000	0.093371
0.350000	0.250000	0.050000	4	3	1	0.014150	0.002548	-0.001181	13.276759	0.000000	-1.000000	0.093315
0.450000	0.250000	0.050000	5	3	1	0.017460	0.002337	-0.001272	13.280635	0.000000	-1.000000	0.093242
0.550000	0.250000	0.050000	6	3	1	0.021019	0.002043	-0.001449	13.291511	0.000000	-1.000000	0.093147
0.650000	0.250000	0.050000	7	3	1	0.025084	0.001588	-0.001752	13.311517	0.000000	-1.000000	0.093022
0.750000	0.250000	0.050000	8	3	1	0.030083	0.000690	-0.002326	13.344628	0.000000	-1.000000	0.092849
0.850000	0.250000	0.050000	9	3	1	0.036674	-0.001221	-0.003447	13.398619	0.000000	-1.000000	0.092580
0.950000	0.250000	0.050000	10	3	1	0.020231	-0.005491	0.019869	13.883244	0.000000	-1.000000	0.092249
1.000000	0.250000	0.050000	11	3	1	0.000000	0.000000	0.000000	39.991760	0.000000	1.000000	0.092249
0.000000	0.350000	0.050000	0	4	1	0.000000	0.000000	0.000000	10.001659	0.000000	1.000000	0.093440
0.050000	0.350000	0.050000	1	4	1	0.003610	0.002300	-0.002957	13.285391	0.000000	-1.000000	0.093440
0.150000	0.350000	0.050000	2	4	1	0.009149	0.001769	-0.001489	13.298646	0.000000	-1.000000	0.093435
0.250000	0.350000	0.050000	3	4	1	0.012757	0.001741	-0.001224	13.290788	0.000000	-1.000000	0.093386
0.350000	0.350000	0.050000	4	4	1	0.016125	0.001651	-0.001230	13.286115	0.000000	-1.000000	0.093328
0.450000	0.350000	0.050000	5	4	1	0.019571	0.001483	-0.001323	13.287470	0.000000	-1.000000	0.093255
0.550000	0.350000	0.050000	6	4	1	0.023221	0.001233	-0.001500	13.296292	0.000000	-1.000000	0.093161
0.650000	0.350000	0.050000	7	4	1	0.027235	0.000823	-0.001802	13.314307	0.000000	-1.000000	0.093040
0.750000	0.350000	0.050000	8	4	1	0.031890	0.000056	-0.002375	13.345700	0.000000	-1.000000	0.092877
0.850000	0.350000	0.050000	9	4	1	0.037725	-0.001357	-0.003507	13.398858	0.000000	-1.000000	0.092632
0.950000	0.350000	0.050000	10	4	1	0.020513	-0.004119	0.019503	13.878304	0.000000	-1.000000	0.092336
1.000000	0.350000	0.050000	11	4	1	0.000000	0.000000	0.000000	39.991760	0.000000	1.000000	0.092336
0.000000	0.450000	0.050000	0	5	1	0.000000	0.000000	0.000000	10.001659	0.000000	1.000000	0.093444
0.050000	0.450000	0.050000	1	5	1	0.003984	0.000823	-0.003161	13.319018	0.000000	-1.000000	0.093444
0.150000	0.450000	0.050000	2	5	1	0.009966	0.000665	-0.001333	13.315394	0.000000	-1.000000	0.093442
0.250000	0.450000	0.050000	3	5	1	0.013660	0.000643	-0.001053	13.297605	0.000000	-1.000000	0.093392
0.350000	0.450000	0.050000	4	5	1	0.017109	0.000596	-0.001156	13.290154	0.000000	-1.000000	0.093336
0.450000	0.450000	0.050000	5	5	1	0.020694	0.000524	-0.001309	13.291237	0.000000	-1.000000	0.093263
0.550000	0.450000	0.050000	6	5	1	0.024457	0.000421	-0.001509	13.299848	0.000000	-1.000000	0.093170
0.650000	0.450000	0.050000	7	5	1	0.028469	0.000251	-0.001831	13.317534	0.000000	-1.000000	0.093052
0.750000	0.450000	0.050000	8	5	1	0.032936	-0.000051	-0.002436	13.348912	0.000000	-1.000000	0.092896
0.850000	0.450000	0.050000	9	5	1	0.038337	-0.000575	-0.003591	13.402171	0.000000	-1.000000	0.092663
0.950000	0.450000	0.050000	10	5	1	0.020677	-0.001555	0.019122	13.877947	0.000000	-1.000000	0.092388
1.000000	0.450000	0.050000	11	5	1	0.000000	0.000000	0.000000	39.991760	0.000000	1.000000	0.092388
0.000000	0.550000	0.050000	0	6	1	0.000000	0.000000	0.000000	10.001659	0.000000	1.000000	0.093444
0.050000	0.550000	0.050000	1	6	1	0.003984	-0.000823	-0.003161	13.319018	0.000000	-1.000000	0.093444
0.150000	0.550000	0.050000	2	6	1	0.009966	-0.000665	-0.001333	13.315394	0.000000	-1.000000	0.093442
0.250000	0.550000	0.050000	3	6	1	0.013660	-0.000643	-0.001053	13.297605	0.000000	-1.000000	0.093392
0.350000	0.550000	0.050000	4	6	1	0.017109	-0.000596	-0.001156	13.290154	0.000000	-1.000000	0.093336
0.450000	0.550000	0.050000	5	6	1	0.020694	-0.000524	-0.001309	13.291237	0.000000	-1.000000	0.093263
0.550000	0.550000	0.050000	6	6	1	0.024457	-0.000421	-0.001509	13.299848	0.000000	-1.000000	0.093170
0.650000	0.550000	0.050000	7	6	1	0.028469	-0.000251	-0.001831	13.317534	0.000000	-1.000000	0.093052
0.750000	0.550000	0.050000	8	6	1	0.032936	0.000051	-0.002436	13.348912	0.000000	-1.000000	0.092896
0.850000	0.550000	0.050000	9	6	1	0.038337	0.000575	-0.003591	13.402171	0.000000	-1.000000	0.092663
0.950000	0.550000	0.050000	10	6	1	0.020677	0.001555	0.019122	13.877947	0.000000	-1.000000	0.092388
1.000000	0.550000	0.050000	11	6	1	0.000000	0.000000	0.000000	39.991760	0.000000	1.000000	0.092388
0.000000	0.650000	0.050000	0	7	1	0.000000	0.000000	0.000000	10.001659	0.000000	1.000000	0.093440
0.050000	0.650000	0.050000	1	7	1	0.003610	-0.002300	-0.002957	13.285391	0.000000	-1.000000	0.093440
0.150000	0.650000	0.050000	2	7	1	0.009149	-0.001769	-0.001489	13.298646	0.000000	-1.000000	0.093435
0.250000	0.650000	0.050000	3	7	1	0.012757	-0.001741	-0.001224	13.290788	0.000000	-1.000000	0.093386
0.350000	0.650000	0.050000	4	7	1	0.016125	-0.001651	-0.001230	13.286115	0.000000	-1.000000	0.093328
0.450000	0.650000	0.050000	5	7	1	0.019571	-0.001483	-0.001323	13.287470	0.000000	-1.000000	0.093255
0.550000	0.650000	0.050000	6	7	1	0.023221	-0.001233	-0.001500	13.296292	0.000000	-1.000000	0.093161
0.650000	0.650000	0.050000	7	7	1	0.027235	-0.000823	-0.001802	13.314307	0.000000	-1.000000	0.093040
0.750000	0.650000	0.050000	8	7	1	0.031890	-0.000056	-0.002375	13.345700	0.000000	-1.000000	0.092877
0.850000	0.650000	0.050000	9	7	1	0.037725	0.001357	-0.003507	13.398858	0.000000	-1.000000	0.092632
0.950000	0.650000	0.050000	10	7	1	0.020513	0.004119	0.019503	13.878304	0.000000	-1.000000	0.092336
1.000000	0.650000	0.050000	11	7	1	0.000000	0.000000	0.000000	39.991760	0.000000	1.000000	0.092336
0.000000	0.750000	0.050000	0	8	1	0.000000	0.000000	0.000000	10.001659	0.000000	1.000000	0.093412
0.050000	0.750000	0.050000	1	8	1	0.002930	-0.003772	-0.002111	13.259437	0.000000	-1.000000	0.093412
0.150000	0.750000	0.050000	2	8	1	0.007564	-0.002678	-0.001234	13.277418	0.000000	-1.000000	0.093412
0.250000	0.750000	0.050000	3	8	1	0.010899	-0.002662	-0.001165	13.277248	0.000000	-1.000000	0.093371
0.350000	0.750000	0.050000	4	8	1	0.014150	-0.002548	-0.001181	13.276759	0.000000	-1.000000	0.093315
0.450000	0.750000	0.050000	5	8	1	0.017460	-0.002337	-0.001272	13.280635	0.000000	-1.000000	0.093242
0.550000	0.750000	0.050000	6	8	1	0.021019	-0.002043	-0.001449	13.291511	0.000000	-1.000000	0.093147
0.650000	0.750000	0.050000	7	8	1	0.025084	-0.001588	-0.001752	13.311517	0.000000	-1.000000	0.093022
0.750000	0.750000	0.050000	8	8	1	0.030083	-0.000690	-0.002326	13.344628	0.000000	-1.000000	0.092849
0.850000	0.750000	0.050000	9	8	1	0.036674	0.001221	-0.003447	13.398619	0.000000	-1.000000	0.092580
0.950000	0.750000	0.050000	10	8	1	0.020231	0.005491	0.019869	13.883244	0.000000	-1.000000	0.092249
1.000000	0.750000	0.050000	11	8	1	0.000000	0.000000	0.000000	39.991760	0.000000	1.000000	0.092249
0.000000	0.850000	0.050000	0	9	1	0.000000	0.000000	0.000000	10.001659	0.000000	1.000000	0.093372
0.050000	0.850000	0.050000	1	9	1	0.002371	-0.004830	-0.002132	13.348577	0.000000	-1.000000	0.093372
0.150000	0.850000	0.050000	2	9	1	0.005969	-0.003396	-0.000979	13.314515	0.000000	-1.000000	0.093380
0.250000	0.850000	0.050000	3	9	1	0.008712	-0.003491	-0.001155	13.305533	0.000000	-1.000000	0.093353
0.350000	0.850000	0.050000	4	9	1	0.011757	-0.003360	-0.001156	13.300399	0.000000	-1.000000	0.093299
0.450000	0.850000	0.050000	5	9	1	0.014905	-0.003168	-0.001208	13.300928	0.000000	-1.000000	0.093226
0.550000	0.850000	0.050000	6	9	1	0.018373	-0.002949	-0.001363	13.310234	0.000000	-1.000000	0.093130
0.650000	0.850000	0.050000	7	9	1	0.022514	-0.002657	-0.001668	13.330850	0.000000	-1.000000	0.093000
0.750000	0.850000	0.050000	8	9	1	0.027951	-0.002028	-0.002283	13.366122	0.000000	-1.000000	0.092813
0.850000	0.850000	0.050000	9	9	1	0.035480	-0.000178	-0.003327	13.417268	0.000000	-1.000000	0.092515
0.950000	0.850000	0.050000	10	9	1	0.019932	0.005536	0.020250	13.903515	0.000000	-1.000000	0.092140
1.000000	0.850000	0.050000	11	9	1	0.000000	0.000000	0.000000	39.991760	0.000000	1.000000	0.092140
0.000000	0.950000	0.050000	0	10	1	0.000000	0.000000	0.000000	10.001659	0.000000	1.000000	0.093326
0.050000	0.950000	0.050000	1	10	1	0.002051	-0.002535	-0.004586	13.441197	0.000000	-1.000000	0.093326
0.150000	0.950000	0.050000	2	10	1	0.004574	-0.001822	-0.002295	13.325709	0.000000	-1.000000	0.093352
0.250000	0.950000	0.050000	3	10	1	0.006135	-0.001926	-0.003014	13.322132	0.000000	-1.000000	0.093336
0.350000	0.950000	0.050000	4	10	1	0.008388	-0.001866	-0.003032	13.322513	0.000000	-1.000000	0.093284
0.450000	0.950000	0.050000	5	10	1	0.010848	-0.001789	-0.003084	13.327891	0.000000	-1.000000	0.093211
0.550000	0.950000	0.050000	6	10	1	0.013703	-0.001717	-0.003277	13.343129	0.000000	-1.000000	0.093114
0.650000	0.950000	0.050000	7	10	1	0.017347	-0.001641	-0.003724	13.372721	0.000000	-1.000000	0.092982
0.750000	0.950000	0.050000	8	10	1	0.022677	-0.001445	-0.004692	13.420307	0.000000	-1.000000	0.092786
0.850000	0.950000	0.050000	9	10	1	0.031315	-0.000618	-0.006009	13.470381	0.000000	-1.000000	0.092445
0.950000	0.950000	0.050000	10	10	1	0.018353	0.002609	0.020963	13.909129	0.000000	-1.000000	0.092015
1.000000	0.950000	0.050000	11	10	1	0.000000	0.000000	0.000000	39.991760	0.000000	1.000000	0.092015
0.000000	1.000000	0.050000	0	11	1	0.000000	0.000000	0.000000	10.001659	0.000000	1.000000	0.000000
0.050000	1.000000	0.050000	1	11	1	0.000000	0.000000	0.000000	10.001660	0.000000	1.000000	0.093326
0.150000	1.000000	0.050000	2	11	1	0.000000	0.000000	0.000000	10.001660	0.000000	1.000000	0.093352
0.250000	1.000000	0.050000	3	11	1	0.000000	0.000000	0.000000	10.001660	0.000000	1.000000	0.093336
0.350000	1.000000	0.050000	4	11	1	0.000000	0.000000	0.000000	10.001660	0.000000	1.000000	0.093284
0.450000	1.000000	0.050000	5	11	1	0.000000	0.000000	0.000000	10.001660	0.000000	1.000000	0.093211
0.550000	1.000000	0.050000	6	11	1	0.000000	0.000000	0.000000	10.001660	0.000000	1.000000	0.093114
0.650000	1.000000	0.050000	7	11	1	0.000000	0.000000	0.000000	10.001660	0.000000	1.000000	0.092982
0.750000	1.000000	0.050000	8	11	1	0.000000	0.000000	0.000000	10.001660	0.000000	1.000000	0.092786
0.850000	1.000000	0.050000	9	11	1	0.000000	0.000000	0.000000	10.001660	0.000000	1.000000	0.092445
0.950000	1.000000	0.050000	10	11	1	0.000000	0.000000	0.000000	10.001660	0.000000	1.000000	0.092015
1.000000	1.000000	0.050000	11	11	1	0.000000	0.000000	0.000000	39.991760	0.000000	1.000000	0.000000
0.000000	0.000000	0.150000	0	0	2	0.000000	0.000000	0.000000	10.001659	0.000000	1.000000	0.000000
0.050000	0.000000	0.150000	1	0	2	0.000000	0.000000	0.000000	10.001660	0.000000	1.000000	0.069895
0.150000	0.000000	0.150000	2	0	2	0.000000	0.000000	0.000000	10.001660	0.000000	1.000000	0.069739
0.250000	0.000000	0.150000	3	0	2	0.000000	0.000000	0.000000	10.001660	0.000000	1.000000	0.069720
0.350000	0.000000	0.150000	4	0	2	0.000000	0.000000	0.000000	10.001660	0.000000	1.000000	0.069663
0.450000	0.000000	0.150000	5	0	2	0.000000	0.000000	0.000000	10.001660	0.000000	1.000000	0.069606
0.550000	0.000000	0.150000	6	0	2	0.000000	0.000000	0.000000	10.001660	0.000000	1.000000	0.069559
0.650000	0.000000	0.150000	7	0	2	0.000000	0.000000	0.000000	10.001660	0.000000	1.000000	0.069523
0.750000	0.000000	0.150000	8	0	2	0.000000	0.000000	0.000000	10.001660	0.000000	1.000000	0.069491
0.850000	0.000000	0.150000	9	0	2	0.000000	0.000000	0.000000	10.001660	0.000000	1.000000	0.069427
0.950000	0.000000	0.150000	10	0	2	0.000000	0.000000	0.000000	10.001660	0.000000	1.000000	0.070060
1.000000	0.000000	0.150000	11	0	2	0.000000	0.000000	0.000000	39.991760	0.000000	1.000000	0.000000
0.000000	0.050000	0.150000	0	1	2	0.000000	0.000000	0.000000	10.001659	0.000000	1.000000	0.069895
0.050000	0.050000	0.150000	1	1	2	0.006096	0.009737	-0.025004	14.399379	0.000000	-1.000000	0.069895
0.150000	0.050000	0.150000	2	1	2	0.007056	0.008111	-0.007564	14.272620	0.000000	-1.000000	0.069739