TITLE = "dt=0.100000s, t=1860.000000s, nu=0.000016, Lx=1.000000, Ly=1.000000, Lz=1.000000, Nx=12, Ny=12, Nz=12 "
VARIABLES =X, Y, Z, I, J, K, U, V, W, T, Xi, FlagP, P 
ZONE F=POINT, I=12, J=12, K=12
0.000000	0.000000	0.000000	0	0	0	0.000000	0.000000	0.000000	16.666667	0.000000	1.000000	0.000000
0.050000	0.000000	0.000000	1	0	0	0.000000	0.000000	0.000000	30.000000	0.000000	1.000000	0.000000
0.150000	0.000000	0.000000	2	0	0	0.000000	0.000000	0.000000	30.000000	0.000000	1.000000	0.000000
0.250000	0.000000	0.000000	3	0	0	0.000000	0.000000	0.000000	30.000000	0.000000	1.000000	0.000000
0.350000	0.000000	0.000000	4	0	0	0.000000	0.000000	0.000000	30.000000	0.000000	1.000000	0.000000
0.450000	0.000000	0.000000	5	0	0	0.000000	0.000000	0.000000	30.000000	0.000000	1.000000	0.000000
0.550000	0.000000	0.000000	6	0	0	0.000000	0.000000	0.000000	30.000000	0.000000	1.000000	0.000000
0.650000	0.000000	0.000000	7	0	0	0.000000	0.000000	0.000000	30.000000	0.000000	1.000000	0.000000
0.750000	0.000000	0.000000	8	0	0	0.000000	0.000000	0.000000	30.000000	0.000000	1.000000	0.000000
0.850000	0.000000	0.000000	9	0	0	0.000000	0.000000	0.000000	30.000000	0.000000	1.000000	0.000000
0.950000	0.000000	0.000000	10	0	0	0.000000	0.000000	0.000000	30.000000	0.000000	1.000000	0.000000
1.000000	0.000000	0.000000	11	0	0	0.000000	0.000000	0.000000	36.666667	0.000000	1.000000	0.000000
0.000000	0.050000	0.000000	0	1	0	0.000000	0.000000	0.000000	10.000000	0.000000	1.000000	0.000000
0.050000	0.050000	0.000000	1	1	0	0.000000	0.000000	0.000000	25.128332	0.000000	1.000000	-0.091176
0.150000	0.050000	0.000000	2	1	0	0.000000	0.000000	0.000000	25.173026	0.000000	1.000000	-0.091559
0.250000	0.050000	0.000000	3	1	0	0.000000	0.000000	0.000000	25.180425	0.000000	1.000000	-0.092450
0.350000	0.050000	0.000000	4	1	0	0.000000	0.000000	0.000000	25.182494	0.000000	1.000000	-0.092633
0.450000	0.050000	0.000000	5	1	0	0.000000	0.000000	0.000000	25.184377	0.000000	1.000000	-0.092657
0.550000	0.050000	0.000000	6	1	0	0.000000	0.000000	0.000000	25.186186	0.000000	1.000000	-0.092628
0.650000	0.050000	0.000000	7	1	0	0.000000	0.000000	0.000000	25.187970	0.000000	1.000000	-0.092565
0.750000	0.050000	0.000000	8	1	0	0.000000	0.000000	0.000000	25.189795	0.000000	1.000000	-0.092470
0.850000	0.050000	0.000000	9	1	0	0.000000	0.000000	0.000000	25.193165	0.000000	1.000000	-0.092321
0.950000	0.050000	0.000000	10	1	0	0.000000	0.000000	0.000000	25.490478	0.000000	1.000000	-0.092083
1.000000	0.050000	0.000000	11	1	0	0.000000	0.000000	0.000000	40.000000	0.000000	1.000000	0.000000
0.000000	0.150000	0.000000	0	2	0	0.000000	0.000000	0.000000	10.000000	0.000000	1.000000	0.000000
0.050000	0.150000	0.000000	1	2	0	0.000000	0.000000	0.000000	25.098786	0.000000	1.000000	-0.091197
0.150000	0.150000	0.000000	2	2	0	0.000000	0.000000	0.000000	25.140123	0.000000	1.000000	-0.091574
0.250000	0.150000	0.000000	3	2	0	0.000000	0.000000	0.000000	25.148999	0.000000	1.000000	-0.092402
0.350000	0.150000	0.000000	4	2	0	0.000000	0.000000	0.000000	25.153736	0.000000	1.000000	-0.092585
0.450000	0.150000	0.000000	5	2	0	0.000000	0.000000	0.000000	25.157626	0.000000	1.000000	-0.092625
0.550000	0.150000	0.000000	6	2	0	0.000000	0.000000	0.000000	25.160724	0.000000	1.000000	-0.092608
0.650000	0.150000	0.000000	7	2	0	0.000000	0.000000	0.000000	25.163384	0.000000	1.000000	-0.092549
0.750000	0.150000	0.000000	8	2	0	0.000000	0.000000	0.000000	25.166088	0.000000	1.000000	-0.092460
0.850000	0.150000	0.000000	9	2	0	0.000000	0.000000	0.000000	25.170267	0.000000	1.000000	-0.092330
0.950000	0.150000	0.000000	10	2	0	0.000000	0.000000	0.000000	25.465427	0.000000	1.000000	-0.092113
1.000000	0.150000	0.000000	11	2	0	0.000000	0.000000	0.000000	40.000000	0.000000	1.000000	0.000000
0.000000	0.250000	0.000000	0	3	0	0.000000	0.000000	0.000000	10.000000	0.000000	1.000000	0.000000
0.050000	0.250000	0.000000	1	3	0	0.000000	0.000000	0.000000	25.096734	0.000000	1.000000	-0.091199
0.150000	0.250000	0.000000	2	3	0	0.000000	0.000000	0.000000	25.136841	0.000000	1.000000	-0.091577
0.250000	0.250000	0.000000	3	3	0	0.000000	0.000000	0.000000	25.145780	0.000000	1.000000	-0.092397
0.350000	0.250000	0.000000	4	3	0	0.000000	0.000000	0.000000	25.151028	0.000000	1.000000	-0.092582
0.450000	0.250000	0.000000	5	3	0	0.000000	0.000000	0.000000	25.155639	0.000000	1.000000	-0.092621
0.550000	0.250000	0.000000	6	3	0	0.000000	0.000000	0.000000	25.159817	0.000000	1.000000	-0.092603
0.650000	0.250000	0.000000	7	3	0	0.000000	0.000000	0.000000	25.163456	0.000000	1.000000	-0.092548
0.750000	0.250000	0.000000	8	3	0	0.000000	0.000000	0.000000	25.166158	0.000000	1.000000	-0.092457
0.850000	0.250000	0.000000	9	3	0	0.000000	0.000000	0.000000	25.170386	0.000000	1.000000	-0.092328
0.950000	0.250000	0.000000	10	3	0	0.000000	0.000000	0.000000	25.470638	0.000000	1.000000	-0.092117
1.000000	0.250000	0.000000	11	3	0	0.000000	0.000000	0.000000	40.000000	0.000000	1.000000	0.000000
0.000000	0.350000	0.000000	0	4	0	0.000000	0.000000	0.000000	10.000000	0.000000	1.000000	0.000000
0.050000	0.350000	0.000000	1	4	0	0.000000	0.000000	0.000000	25.121954	0.000000	1.000000	-0.091176
0.150000	0.350000	0.000000	2	4	0	0.000000	0.000000	0.000000	25.164096	0.000000	1.000000	-0.091560
0.250000	0.350000	0.000000	3	4	0	0.000000	0.000000	0.000000	25.171441	0.000000	1.000000	-0.092446
0.350000	0.350000	0.000000	4	4	0	0.000000	0.000000	0.000000	25.173302	0.000000	1.000000	-0.092634
0.450000	0.350000	0.000000	5	4	0	0.000000	0.000000	0.000000	25.175013	0.000000	1.000000	-0.092660
0.550000	0.350000	0.000000	6	4	0	0.000000	0.000000	0.000000	25.176716	0.000000	1.000000	-0.092632
0.650000	0.350000	0.000000	7	4	0	0.000000	0.000000	0.000000	25.178469	0.000000	1.000000	-0.092566
0.750000	0.350000	0.000000	8	4	0	0.000000	0.000000	0.000000	25.180331	0.000000	1.000000	-0.092459
0.850000	0.350000	0.000000	9	4	0	0.000000	0.000000	0.000000	25.183858	0.000000	1.000000	-0.092295
0.950000	0.350000	0.000000	10	4	0	0.000000	0.000000	0.000000	25.477683	0.000000	1.000000	-0.092034
1.000000	0.350000	0.000000	11	4	0	0.000000	0.000000	0.000000	40.000000	0.000000	1.000000	0.000000
0.000000	0.450000	0.000000	0	5	0	0.000000	0.000000	0.000000	10.000000	0.000000	1.000000	0.000000
0.050000	0.450000	0.000000	1	5	0	0.000000	0.000000	0.000000	25.132902	0.000000	1.000000	-0.091155
0.150000	0.450000	0.000000	2	5	0	0.000000	0.000000	0.000000	25.178126	0.000000	1.000000	-0.091527
0.250000	0.450000	0.000000	3	5	0	0.000000	0.000000	0.000000	25.186288	0.000000	1.000000	-0.092481
0.350000	0.450000	0.000000	4	5	0	0.000000	0.000000	0.000000	25.188478	0.000000	1.000000	-0.092679
0.450000	0.450000	0.000000	5	5	0	0.000000	0.000000	0.000000	25.190486	0.000000	1.000000	-0.092689
0.550000	0.450000	0.000000	6	5	0	0.000000	0.000000	0.000000	25.192405	0.000000	1.000000	-0.092646
0.650000	0.450000	0.000000	7	5	0	0.000000	0.000000	0.000000	25.194304	0.000000	1.000000	-0.092567
0.750000	0.450000	0.000000	8	5	0	0.000000	0.000000	0.000000	25.196268	0.000000	1.000000	-0.092445
0.850000	0.450000	0.000000	9	5	0	0.000000	0.000000	0.000000	25.199767	0.000000	1.000000	-0.092255
0.950000	0.450000	0.000000	10	5	0	0.000000	0.000000	0.000000	25.489517	0.000000	1.000000	-0.091964
1.000000	0.450000	0.000000	11	5	0	0.000000	0.000000	0.000000	40.000000	0.000000	1.000000	0.000000
0.000000	0.550000	0.000000	0	6	0	0.000000	0.000000	0.000000	10.000000	0.000000	1.000000	0.000000
0.050000	0.550000	0.000000	1	6	0	0.000000	0.000000	0.000000	25.132913	0.000000	1.000000	-0.091155
0.150000	0.550000	0.000000	2	6	0	0.000000	0.000000	0.000000	25.178138	0.000000	1.000000	-0.091527
0.250000	0.550000	0.000000	3	6	0	0.000000	0.000000	0.000000	25.186301	0.000000	1.000000	-0.092481
0.350000	0.550000	0.000000	4	6	0	0.000000	0.000000	0.000000	25.188491	0.000000	1.000000	-0.092679
0.450000	0.550000	0.000000	5	6	0	0.000000	0.000000	0.000000	25.190500	0.000000	1.000000	-0.092689
0.550000	0.550000	0.000000	6	6	0	0.000000	0.000000	0.000000	25.192419	0.000000	1.000000	-0.092646
0.650000	0.550000	0.000000	7	6	0	0.000000	0.000000	0.000000	25.194317	0.000000	1.000000	-0.092567
0.750000	0.550000	0.000000	8	6	0	0.000000	0.000000	0.000000	25.196282	0.000000	1.000000	-0.092445
0.850000	0.550000	0.000000	9	6	0	0.000000	0.000000	0.000000	25.199782	0.000000	1.000000	-0.092255
0.950000	0.550000	0.000000	10	6	0	0.000000	0.000000	0.000000	25.489530	0.000000	1.000000	-0.091964
1.000000	0.550000	0.000000	11	6	0	0.000000	0.000000	0.000000	40.000000	0.000000	1.000000	0.000000
0.000000	0.650000	0.000000	0	7	0	0.000000	0.000000	0.000000	10.000000	0.000000	1.000000	0.000000
0.050000	0.650000	0.000000	1	7	0	0.000000	0.000000	0.000000	25.121963	0.000000	1.000000	-0.091176
0.150000	0.650000	0.000000	2	7	0	0.000000	0.000000	0.000000	25.164107	0.000000	1.000000	-0.091560
0.250000	0.650000	0.000000	3	7	0	0.000000	0.000000	0.000000	25.171451	0.000000	1.000000	-0.092446
0.350000	0.650000	0.000000	4	7	0	0.000000	0.000000	0.000000	25.173313	0.000000	1.000000	-0.092634
0.450000	0.650000	0.000000	5	7	0	0.000000	0.000000	0.000000	25.175023	0.000000	1.000000	-0.092660
0.550000	0.650000	0.000000	6	7	0	0.000000	0.000000	0.000000	25.176725	0.000000	1.000000	-0.092632
0.650000	0.650000	0.000000	7	7	0	0.000000	0.000000	0.000000	25.178478	0.000000	1.000000	-0.092566
0.750000	0.650000	0.000000	8	7	0	0.000000	0.000000	0.000000	25.180340	0.000000	1.000000	-0.092459
0.850000	0.650000	0.000000	9	7	0	0.000000	0.000000	0.000000	25.183866	0.000000	1.000000	-0.092295
0.950000	0.650000	0.000000	10	7	0	0.000000	0.000000	0.000000	25.477691	0.000000	1.000000	-0.092034
1.000000	0.650000	0.000000	11	7	0	0.000000	0.000000	0.000000	40.000000	0.000000	1.000000	0.000000
0.000000	0.750000	0.000000	0	8	0	0.000000	0.000000	0.000000	10.000000	0.000000	1.000000	0.000000
0.050000	0.750000	0.000000	1	8	0	0.000000	0.000000	0.000000	25.096739	0.000000	1.000000	-0.091199
0.150000	0.750000	0.000000	2	8	0	0.000000	0.000000	0.000000	25.136847	0.000000	1.000000	-0.091577
0.250000	0.750000	0.000000	3	8	0	0.000000	0.000000	0.000000	25.145785	0.000000	1.000000	-0.092397
0.350000	0.750000	0.000000	4	8	0	0.000000	0.000000	0.000000	25.151033	0.000000	1.000000	-0.092582
0.450000	0.750000	0.000000	5	8	0	0.000000	0.000000	0.000000	25.155643	0.000000	1.000000	-0.092621
0.550000	0.750000	0.000000	6	8	0	0.000000	0.000000	0.000000	25.159820	0.000000	1.000000	-0.092603
0.650000	0.750000	0.000000	7	8	0	0.000000	0.000000	0.000000	25.163458	0.000000	1.000000	-0.092548
0.750000	0.750000	0.000000	8	8	0	0.000000	0.000000	0.000000	25.166160	0.000000	1.000000	-0.092457
0.850000	0.750000	0.000000	9	8	0	0.000000	0.000000	0.000000	25.170387	0.000000	1.000000	-0.092328
0.950000	0.750000	0.000000	10	8	0	0.000000	0.000000	0.000000	25.470638	0.000000	1.000000	-0.092117
1.000000	0.750000	0.000000	11	8	0	0.000000	0.000000	0.000000	40.000000	0.000000	1.000000	0.000000
0.000000	0.850000	0.000000	0	9	0	0.000000	0.000000	0.000000	10.000000	0.000000	1.000000	0.000000
0.050000	0.850000	0.000000	1	9	0	0.000000	0.000000	0.000000	25.098781	0.000000	1.000000	-0.091197
0.150000	0.850000	0.000000	2	9	0	0.000000	0.000000	0.000000	25.140117	0.000000	1.000000	-0.091574
0.250000	0.850000	0.000000	3	9	0	0.000000	0.000000	0.000000	25.148994	0.000000	1.000000	-0.092402
0.350000	0.850000	0.000000	4	9	0	0.000000	0.000000	0.000000	25.153732	0.000000	1.000000	-0.092585
0.450000	0.850000	0.000000	5	9	0	0.000000	0.000000	0.000000	25.157623	0.000000	1.000000	-0.092625
0.550000	0.850000	0.000000	6	9	0	0.000000	0.000000	0.000000	25.160721	0.000000	1.000000	-0.092608
0.650000	0.850000	0.000000	7	9	0	0.000000	0.000000	0.000000	25.163382	0.000000	1.000000	-0.092549
0.750000	0.850000	0.000000	8	9	0	0.000000	0.000000	0.000000	25.166086	0.000000	1.000000	-0.092460
0.850000	0.850000	0.000000	9	9	0	0.000000	0.000000	0.000000	25.170265	0.000000	1.000000	-0.092330
0.950000	0.850000	0.000000	10	9	0	0.000000	0.000000	0.000000	25.465429	0.000000	1.000000	-0.092113
1.000000	0.850000	0.000000	11	9	0	0.000000	0.000000	0.000000	40.000000	0.000000	1.000000	0.000000
0.000000	0.950000	0.000000	0	10	0	0.000000	0.000000	0.000000	10.000000	0.000000	1.000000	0.000000
0.050000	0.950000	0.000000	1	10	0	0.000000	0.000000	0.000000	25.128331	0.000000	1.000000	-0.091176
0.150000	0.950000	0.000000	2	10	0	0.000000	0.000000	0.000000	25.173024	0.000000	1.000000	-0.091559
0.250000	0.950000	0.000000	3	10	0	0.000000	0.000000	0.000000	25.180423	0.000000	1.000000	-0.092450
0.350000	0.950000	0.000000	4	10	0	0.000000	0.000000	0.000000	25.182492	0.000000	1.000000	-0.092633
0.450000	0.950000	0.000000	5	10	0	0.000000	0.000000	0.000000	25.184375	0.000000	1.000000	-0.092657
0.550000	0.950000	0.000000	6	10	0	0.000000	0.000000	0.000000	25.186183	0.000000	1.000000	-0.092628
0.650000	0.950000	0.000000	7	10	0	0.000000	0.000000	0.000000	25.187968	0.000000	1.000000	-0.092565
0.750000	0.950000	0.000000	8	10	0	0.000000	0.000000	0.000000	25.189793	0.000000	1.000000	-0.092470
0.850000	0.950000	0.000000	9	10	0	0.000000	0.000000	0.000000	25.193163	0.000000	1.000000	-0.092321
0.950000	0.950000	0.000000	10	10	0	0.000000	0.000000	0.000000	25.490476	0.000000	1.000000	-0.092083
1.000000	0.950000	0.000000	11	10	0	0.000000	0.000000	0.000000	40.000000	0.000000	1.000000	0.000000
0.000000	1.000000	0.000000	0	11	0	0.000000	0.000000	0.000000	16.666667	0.000000	1.000000	0.000000
0.050000	1.000000	0.000000	1	11	0	0.000000	0.000000	0.000000	30.000000	0.000000	1.000000	0.000000
0.150000	1.000000	0.000000	2	11	0	0.000000	0.000000	0.000000	30.000000	0.000000	1.000000	0.000000
0.250000	1.000000	0.000000	3	11	0	0.000000	0.000000	0.000000	30.000000	0.000000	1.000000	0.000000
0.350000	1.000000	0.000000	4	11	0	0.000000	0.000000	0.000000	30.000000	0.000000	1.000000	0.000000
0.450000	1.000000	0.000000	5	11	0	0.000000	0.000000	0.000000	30.000000	0.000000	1.000000	0.000000
0.550000	1.000000	0.000000	6	11	0	0.000000	0.000000	0.000000	30.000000	0.000000	1.000000	0.000000
0.650000	1.000000	0.000000	7	11	0	0.000000	0.000000	0.000000	30.000000	0.000000	1.000000	0.000000
0.750000	1.000000	0.000000	8	11	0	0.000000	0.000000	0.000000	30.000000	0.000000	1.000000	0.000000
0.850000	1.000000	0.000000	9	11	0	0.000000	0.000000	0.000000	30.000000	0.000000	1.000000	0.000000
0.950000	1.000000	0.000000	10	11	0	0.000000	0.000000	0.000000	30.000000	0.000000	1.000000	0.000000
1.000000	1.000000	0.000000	11	11	0	0.000000	0.000000	0.000000	36.666667	0.000000	1.000000	0.000000
0.000000	0.000000	0.050000	0	0	1	0.000000	0.000000	0.000000	10.000000	0.000000	1.000000	0.000000
0.050000	0.000000	0.050000	1	0	1	0.000000	0.000000	0.000000	25.128250	0.000000	1.000000	-0.091176
0.150000	0.000000	0.050000	2	0	1	0.000000	0.000000	0.000000	25.172944	0.000000	1.000000	-0.091559
0.250000	0.000000	0.050000	3	0	1	0.000000	0.000000	0.000000	25.180344	0.000000	1.000000	-0.092450
0.350000	0.000000	0.050000	4	0	1	0.000000	0.000000	0.000000	25.182412	0.000000	1.000000	-0.092633
0.450000	0.000000	0.050000	5	0	1	0.000000	0.000000	0.000000	25.184296	0.000000	1.000000	-0.092657
0.550000	0.000000	0.050000	6	0	1	0.000000	0.000000	0.000000	25.186104	0.000000	1.000000	-0.092628
0.650000	0.000000	0.050000	7	0	1	0.000000	0.000000	0.000000	25.187888	0.000000	1.000000	-0.092565
0.750000	0.000000	0.050000	8	0	1	0.000000	0.000000	0.000000	25.189713	0.000000	1.000000	-0.092470
0.850000	0.000000	0.050000	9	0	1	0.000000	0.000000	0.000000	25.193084	0.000000	1.000000	-0.092321
0.950000	0.000000	0.050000	10	0	1	0.000000	0.000000	0.000000	25.490396	0.000000	1.000000	-0.092083
1.000000	0.000000	0.050000	11	0	1	0.000000	0.000000	0.000000	40.000000	0.000000	1.000000	0.000000
0.000000	0.050000	0.050000	0	1	1	0.000000	0.000000	0.000000	10.000000	0.000000	1.000000	-0.091176
0.050000	0.050000	0.050000	1	1	1	0.022487	0.000193	-0.022680	25.128247	0.000000	-1.000000	-0.091176
0.150000	0.050000	0.050000	2	1	1	0.051178	0.000288	-0.006492	25.172941	0.000000	-1.000000	-0.091559
0.250000	0.050000	0.050000	3	1	1	0.058497	-0.000161	-0.000955	25.180340	0.000000	-1.000000	-0.092450
0.350000	0.050000	0.050000	4	1	1	0.059423	-0.000561	0.000750	25.182408	0.000000	-1.000000	-0.092633
0.450000	0.050000	0.050000	5	1	1	0.058608	-0.000808	0.001435	25.184292	0.000000	-1.000000	-0.092657
0.550000	0.050000	0.050000	6	1	1	0.057036	-0.000944	0.001889	25.186100	0.000000	-1.000000	-0.092628
0.650000	0.050000	0.050000	7	1	1	0.054818	-0.001038	0.002312	25.187885	0.000000	-1.000000	-0.092565
0.750000	0.050000	0.050000	8	1	1	0.051685	-0.001063	0.002923	25.189710	0.000000	-1.000000	-0.092470
0.850000	0.050000	0.050000	9	1	1	0.046658	-0.000909	0.004076	25.193080	0.000000	-1.000000	-0.092321
0.950000	0.050000	0.050000	10	1	1	0.021745	-0.000217	0.021962	25.490393	0.000000	-1.000000	-0.092083
1.000000	0.050000	0.050000	11	1	1	0.000000	0.000000	0.000000	40.000000	0.000000	1.000000	-0.092083
0.000000	0.150000	0.050000	0	2	1	0.000000	0.000000	0.000000	10.000000	0.000000	1.000000	-0.091197
0.050000	0.150000	0.050000	1	2	1	0.021985	0.000316	-0.021914	25.098701	0.000000	-1.000000	-0.091197
0.150000	0.150000	0.050000	2	2	1	0.049904	0.000430	-0.005788	25.140037	0.000000	-1.000000	-0.091574
0.250000	0.150000	0.050000	3	2	1	0.056800	-0.000083	-0.001201	25.148914	0.000000	-1.000000	-0.092402
0.350000	0.150000	0.050000	4	2	1	0.057651	-0.000513	-0.000497	25.153651	0.000000	-1.000000	-0.092585
0.450000	0.150000	0.050000	5	2	1	0.057020	-0.000793	-0.000305	25.157541	0.000000	-1.000000	-0.092625
0.550000	0.150000	0.050000	6	2	1	0.055694	-0.000967	-0.000114	25.160638	0.000000	-1.000000	-0.092608
0.650000	0.150000	0.050000	7	2	1	0.053792	-0.001063	0.000080	25.163299	0.000000	-1.000000	-0.092549
0.750000	0.150000	0.050000	8	2	1	0.051136	-0.001113	0.000550	25.166003	0.000000	-1.000000	-0.092460
0.850000	0.150000	0.050000	9	2	1	0.046813	-0.000975	0.001917	25.170182	0.000000	-1.000000	-0.092330
0.950000	0.150000	0.050000	10	2	1	0.022026	-0.000207	0.021800	25.465342	0.000000	-1.000000	-0.092113
1.000000	0.150000	0.050000	11	2	1	0.000000	0.000000	0.000000	40.000000	0.000000	1.000000	-0.092113
0.000000	0.250000	0.050000	0	3	1	0.000000	0.000000	0.000000	10.000000	0.000000	1.000000	-0.091199
0.050000	0.250000	0.050000	1	3	1	0.021978	0.000141	-0.021874	25.096648	0.000000	-1.000000	-0.091199
0.150000	0.250000	0.050000	2	3	1	0.049812	0.000056	-0.005628	25.136755	0.000000	-1.000000	-0.091577
0.250000	0.250000	0.050000	3	3	1	0.056596	0.000449	-0.001222	25.145694	0.000000	-1.000000	-0.092397
0.350000	0.250000	0.050000	4	3	1	0.057340	0.000849	-0.000570	25.150943	0.000000	-1.000000	-0.092582
0.450000	0.250000	0.050000	5	3	1	0.056521	0.001100	-0.000436	25.155554	0.000000	-1.000000	-0.092621
0.550000	0.250000	0.050000	6	3	1	0.054958	0.001241	-0.000358	25.159731	0.000000	-1.000000	-0.092603
0.650000	0.250000	0.050000	7	3	1	0.052911	0.001319	-0.000250	25.163371	0.000000	-1.000000	-0.092548
0.750000	0.250000	0.050000	8	3	1	0.050242	0.001228	0.000222	25.166073	0.000000	-1.000000	-0.092457
0.850000	0.250000	0.050000	9	3	1	0.045975	0.000793	0.001791	25.170300	0.000000	-1.000000	-0.092328
0.950000	0.250000	0.050000	10	3	1	0.021630	-0.000989	0.022638	25.470553	0.000000	-1.000000	-0.092117
1.000000	0.250000	0.050000	11	3	1	0.000000	0.000000	0.000000	40.000000	0.000000	1.000000	-0.092117
0.000000	0.350000	0.050000	0	4	1	0.000000	0.000000	0.000000	10.000000	0.000000	1.000000	-0.091176
0.050000	0.350000	0.050000	1	4	1	0.022529	0.000159	-0.022650	25.121869	0.000000	-1.000000	-0.091176
0.150000	0.350000	0.050000	2	4	1	0.051308	-0.000195	-0.006228	25.164011	0.000000	-1.000000	-0.091560
0.250000	0.350000	0.050000	3	4	1	0.058734	0.000589	-0.001023	25.171356	0.000000	-1.000000	-0.092446
0.350000	0.350000	0.050000	4	4	1	0.059856	0.001393	0.000265	25.173217	0.000000	-1.000000	-0.092634
0.450000	0.350000	0.050000	5	4	1	0.059287	0.001926	0.000759	25.174928	0.000000	-1.000000	-0.092660
0.550000	0.350000	0.050000	6	4	1	0.057904	0.002224	0.001172	25.176630	0.000000	-1.000000	-0.092632
0.650000	0.350000	0.050000	7	4	1	0.055773	0.002311	0.001638	25.178384	0.000000	-1.000000	-0.092566
0.750000	0.350000	0.050000	8	4	1	0.052629	0.002107	0.002331	25.180246	0.000000	-1.000000	-0.092459
0.850000	0.350000	0.050000	9	4	1	0.047529	0.001260	0.003676	25.183772	0.000000	-1.000000	-0.092295
0.950000	0.350000	0.050000	10	4	1	0.022155	-0.002033	0.022190	25.477598	0.000000	-1.000000	-0.092034
1.000000	0.350000	0.050000	11	4	1	0.000000	0.000000	0.000000	40.000000	0.000000	1.000000	-0.092034
0.000000	0.450000	0.050000	0	5	1	0.000000	0.000000	0.000000	10.000000	0.000000	1.000000	-0.091155
0.050000	0.450000	0.050000	1	5	1	0.022867	0.000140	-0.022727	25.132817	0.000000	-1.000000	-0.091155
0.150000	0.450000	0.050000	2	5	1	0.052391	-0.000108	-0.006765	25.178041	0.000000	-1.000000	-0.091527
0.250000	0.450000	0.050000	3	5	1	0.060368	0.000218	-0.001102	25.186202	0.000000	-1.000000	-0.092481
0.350000	0.450000	0.050000	4	5	1	0.061549	0.000591	0.000729	25.188392	0.000000	-1.000000	-0.092679
0.450000	0.450000	0.050000	5	5	1	0.060831	0.000841	0.001420	25.190401	0.000000	-1.000000	-0.092689
0.550000	0.450000	0.050000	6	5	1	0.059357	0.000960	0.001853	25.192320	0.000000	-1.000000	-0.092646
0.650000	0.450000	0.050000	7	5	1	0.057152	0.000968	0.002278	25.194218	0.000000	-1.000000	-0.092567
0.750000	0.450000	0.050000	8	5	1	0.053787	0.000829	0.002882	25.196182	0.000000	-1.000000	-0.092445
0.850000	0.450000	0.050000	9	5	1	0.048213	0.000401	0.003921	25.199682	0.000000	-1.000000	-0.092255
0.950000	0.450000	0.050000	10	5	1	0.022347	-0.001034	0.021313	25.489432	0.000000	-1.000000	-0.091964
1.000000	0.450000	0.050000	11	5	1	0.000000	0.000000	0.000000	40.000000	0.000000	1.000000	-0.091964
0.000000	0.550000	0.050000	0	6	1	0.000000	0.000000	0.000000	10.000000	0.000000	1.000000	-0.091155
0.050000	0.550000	0.050000	1	6	1	0.022867	-0.000140	-0.022727	25.132828	0.000000	-1.000000	-0.091155
0.150000	0.550000	0.050000	2	6	1	0.052391	0.000109	-0.006765	25.178053	0.000000	-1.000000	-0.091527
0.250000	0.550000	0.050000	3	6	1	0.060368	-0.000218	-0.001102	25.186215	0.000000	-1.000000	-0.092481
0.350000	0.550000	0.050000	4	6	1	0.061550	-0.000590	0.000729	25.188405	0.000000	-1.000000	-0.092679
0.450000	0.550000	0.050000	5	6	1	0.060832	-0.000840	0.001421	25.190414	0.000000	-1.000000	-0.092689
0.550000	0.550000	0.050000	6	6	1	0.059358	-0.000959	0.001854	25.192334	0.000000	-1.000000	-0.092646
0.650000	0.550000	0.050000	7	6	1	0.057152	-0.000967	0.002279	25.194232	0.000000	-1.000000	-0.092567
0.750000	0.550000	0.050000	8	6	1	0.053788	-0.000828	0.002883	25.196197	0.000000	-1.000000	-0.092445
0.850000	0.550000	0.050000	9	6	1	0.048214	-0.000401	0.003922	25.199696	0.000000	-1.000000	-0.092255
0.950000	0.550000	0.050000	10	6	1	0.022347	0.001033	0.021313	25.489444	0.000000	-1.000000	-0.091964
1.000000	0.550000	0.050000	11	6	1	0.000000	0.000000	0.000000	40.000000	0.000000	1.000000	-0.091964
0.000000	0.650000	0.050000	0	7	1	0.000000	0.000000	0.000000	10.000000	0.000000	1.000000	-0.091176
0.050000	0.650000	0.050000	1	7	1	0.022529	-0.000159	-0.022651	25.121878	0.000000	-1.000000	-0.091176
0.150000	0.650000	0.050000	2	7	1	0.051309	0.000195	-0.006229	25.164022	0.000000	-1.000000	-0.091560
0.250000	0.650000	0.050000	3	7	1	0.058736	-0.000589	-0.001023	25.171366	0.000000	-1.000000	-0.092446
0.350000	0.650000	0.050000	4	7	1	0.059858	-0.001393	0.000265	25.173227	0.000000	-1.000000	-0.092634
0.450000	0.650000	0.050000	5	7	1	0.059288	-0.001926	0.000760	25.174938	0.000000	-1.000000	-0.092660
0.550000	0.650000	0.050000	6	7	1	0.057905	-0.002224	0.001173	25.176640	0.000000	-1.000000	-0.092632
0.650000	0.650000	0.050000	7	7	1	0.055774	-0.002311	0.001639	25.178393	0.000000	-1.000000	-0.092566
0.750000	0.650000	0.050000	8	7	1	0.052630	-0.002107	0.002332	25.180254	0.000000	-1.000000	-0.092459
0.850000	0.650000	0.050000	9	7	1	0.047529	-0.001260	0.003676	25.183780	0.000000	-1.000000	-0.092295
0.950000	0.650000	0.050000	10	7	1	0.022155	0.002032	0.022190	25.477605	0.000000	-1.000000	-0.092034
1.000000	0.650000	0.050000	11	7	1	0.000000	0.000000	0.000000	40.000000	0.000000	1.000000	-0.092034
0.000000	0.750000	0.050000	0	8	1	0.000000	0.000000	0.000000	10.000000	0.000000	1.000000	-0.091199
0.050000	0.750000	0.050000	1	8	1	0.021978	-0.000141	-0.021874	25.096654	0.000000	-1.000000	-0.091199
0.150000	0.750000	0.050000	2	8	1	0.049812	-0.000055	-0.005628	25.136761	0.000000	-1.000000	-0.091577
0.250000	0.750000	0.050000	3	8	1	0.056597	-0.000449	-0.001222	25.145699	0.000000	-1.000000	-0.092397
0.350000	0.750000	0.050000	4	8	1	0.057341	-0.000850	-0.000570	25.150947	0.000000	-1.000000	-0.092582
0.450000	0.750000	0.050000	5	8	1	0.056522	-0.001101	-0.000436	25.155558	0.000000	-1.000000	-0.092621
0.550000	0.750000	0.050000	6	8	1	0.054959	-0.001242	-0.000357	25.159734	0.000000	-1.000000	-0.092603
0.650000	0.750000	0.050000	7	8	1	0.052912	-0.001320	-0.000250	25.163373	0.000000	-1.000000	-0.092548
0.750000	0.750000	0.050000	8	8	1	0.050243	-0.001228	0.000222	25.166075	0.000000	-1.000000	-0.092457
0.850000	0.750000	0.050000	9	8	1	0.045976	-0.000793	0.001791	25.170302	0.000000	-1.000000	-0.092328
0.950000	0.750000	0.050000	10	8	1	0.021630	0.000989	0.022638	25.470553	0.000000	-1.000000	-0.092117
1.000000	0.750000	0.050000	11	8	1	0.000000	0.000000	0.000000	40.000000	0.000000	1.000000	-0.092117
0.000000	0.850000	0.050000	0	9	1	0.000000	0.000000	0.000000	10.000000	0.000000	1.000000	-0.091197
0.050000	0.850000	0.050000	1	9	1	0.021985	-0.000316	-0.021914	25.098696	0.000000	-1.000000	-0.091197
0.150000	0.850000	0.050000	2	9	1	0.049904	-0.000429	-0.005788	25.140032	0.000000	-1.000000	-0.091574
0.250000	0.850000	0.050000	3	9	1	0.056800	0.000083	-0.001201	25.148909	0.000000	-1.000000	-0.092402
0.350000	0.850000	0.050000	4	9	1	0.057650	0.000513	-0.000497	25.153646	0.000000	-1.000000	-0.092585
0.450000	0.850000	0.050000	5	9	1	0.057019	0.000793	-0.000305	25.157537	0.000000	-1.000000	-0.092625
0.550000	0.850000	0.050000	6	9	1	0.055693	0.000967	-0.000114	25.160636	0.000000	-1.000000	-0.092608
0.650000	0.850000	0.050000	7	9	1	0.053791	0.001062	0.000080	25.163296	0.000000	-1.000000	-0.092549
0.750000	0.850000	0.050000	8	9	1	0.051135	0.001113	0.000549	25.166001	0.000000	-1.000000	-0.092460
0.850000	0.850000	0.050000	9	9	1	0.046812	0.000975	0.001917	25.170180	0.000000	-1.000000	-0.092330
0.950000	0.850000	0.050000	10	9	1	0.022026	0.000207	0.021800	25.465344	0.000000	-1.000000	-0.092113
1.000000	0.850000	0.050000	11	9	1	0.000000	0.000000	0.000000	40.000000	0.000000	1.000000	-0.092113
0.000000	0.950000	0.050000	0	10	1	0.000000	0.000000	0.000000	10.000000	0.000000	1.000000	-0.091176
0.050000	0.950000	0.050000	1	10	1	0.022487	-0.000193	-0.022680	25.128246	0.000000	-1.000000	-0.091176
0.150000	0.950000	0.050000	2	10	1	0.051178	-0.000288	-0.006491	25.172939	0.000000	-1.000000	-0.091559
0.250000	0.950000	0.050000	3	10	1	0.058497	0.000161	-0.000955	25.180338	0.000000	-1.000000	-0.092450
0.350000	0.950000	0.050000	4	10	1	0.059423	0.000561	0.000750	25.182406	0.000000	-1.000000	-0.092633
0.450000	0.950000	0.050000	5	10	1	0.058608	0.000808	0.001435	25.184289	0.000000	-1.000000	-0.092657
0.550000	0.950000	0.050000	6	10	1	0.057036	0.000944	0.001889	25.186098	0.000000	-1.000000	-0.092628
0.650000	0.950000	0.050000	7	10	1	0.054818	0.001038	0.002312	25.187882	0.000000	-1.000000	-0.092565
0.750000	0.950000	0.050000	8	10	1	0.051685	0.001063	0.002923	25.189707	0.000000	-1.000000	-0.092470
0.850000	0.950000	0.050000	9	10	1	0.046658	0.000909	0.004076	25.193078	0.000000	-1.000000	-0.092321
0.950000	0.950000	0.050000	10	10	1	0.021745	0.000217	0.021962	25.490391	0.000000	-1.000000	-0.092083
1.000000	0.950000	0.050000	11	10	1	0.000000	0.000000	0.000000	40.000000	0.000000	1.000000	-0.092083
0.000000	1.000000	0.050000	0	11	1	0.000000	0.000000	0.000000	10.000000	0.000000	1.000000	0.000000
0.050000	1.000000	0.050000	1	11	1	0.000000	0.000000	0.000000	25.128249	0.000000	1.000000	-0.091176
0.150000	1.000000	0.050000	2	11	1	0.000000	0.000000	0.000000	25.172943	0.000000	1.000000	-0.091559
0.250000	1.000000	0.050000	3	11	1	0.000000	0.000000	0.000000	25.180341	0.000000	1.000000	-0.092450
0.350000	1.000000	0.050000	4	11	1	0.000000	0.000000	0.000000	25.182410	0.000000	1.000000	-0.092633
0.450000	1.000000	0.050000	5	11	1	0.000000	0.000000	0.000000	25.184293	0.000000	1.000000	-0.092657
0.550000	1.000000	0.050000	6	11	1	0.000000	0.000000	0.000000	25.186102	0.000000	1.000000	-0.092628
0.650000	1.000000	0.050000	7	11	1	0.000000	0.000000	0.000000	25.187886	0.000000	1.000000	-0.092565
0.750000	1.000000	0.050000	8	11	1	0.000000	0.000000	0.000000	25.189711	0.000000	1.000000	-0.092470
0.850000	1.000000	0.050000	9	11	1	0.000000	0.000000	0.000000	25.193081	0.000000	1.000000	-0.092321
0.950000	1.000000	0.050000	10	11	1	0.000000	0.000000	0.000000	25.490395	0.000000	1.000000	-0.092083
1.000000	1.000000	0.050000	11	11	1	0.000000	0.000000	0.000000	40.000000	0.000000	1.000000	0.000000
0.000000	0.000000	0.150000	0	0	2	0.000000	0.000000	0.000000	10.000000	0.000000	1.000000	0.000000
0.050000	0.000000	0.150000	1	0	2	0.000000	0.000000	0.000000	25.417134	0.000000	1.000000	-0.073981
0.150000	0.000000	0.150000	2	0	2	0.000000	0.000000	0.000000	25.504683	0.000000	1.000000	-0.074450
0.250000	0.000000	0.150000	3	0	2	0.000000	0.000000	0.000000	25.481383	0.000000	1.000000	-0.074581
0.350000	0.000000	0.150000	4	0	2	0.000000	0.000000	0.000000	25.431917	0.000000	1.000000	-0.074477
0.450000	0.000000	0.150000	5	0	2	0.000000	0.000000	0.000000	25.399105	0.000000	1.000000	-0.074416
0.550000	0.000000	0.150000	6	0	2	0.000000	0.000000	0.000000	25.376986	0.000000	1.000000	-0.074361
0.650000	0.000000	0.150000	7	0	2	0.000000	0.000000	0.000000	25.359406	0.000000	1.000000	-0.074288
0.750000	0.000000	0.150000	8	0	2	0.000000	0.000000	0.000000	25.340786	0.000000	1.000000	-0.074199
0.850000	0.000000	0.150000	9	0	2	0.000000	0.000000	0.000000	25.314083	0.000000	1.000000	-0.074067
0.950000	0.000000	0.150000	10	0	2	0.000000	0.000000	0.000000	25.568532	0.000000	1.000000	-0.073301
1.000000	0.000000	0.150000	11	0	2	0.000000	0.000000	0.000000	40.000000	0.000000	1.000000	0.000000
0.000000	0.050000	0.150000	0	1	2	0.000000	0.000000	0.000000	10.000000	0.000000	1.000000	-0.073981