TITLE = "dt=10.000000s, t=7230.000000s, nu=0.000015, Lx=1.000000, Ly=1.000000, Lz=1.000000, Nx=22, Ny=22, Nz=22 "
VARIABLES =X, Y, Z, I, J, K, U, V, W, T, Xi, FlagP, P 
ZONE F=POINT, I=22, J=22, K=22
0.000000	0.000000	0.000000	0	0	0	0.000000	0.000000	0.000000	0.666663	0.000000	1.000000	0.000000
0.025000	0.000000	0.000000	1	0	0	0.000000	0.000000	0.000000	0.000000	0.000000	1.000000	0.000000
0.075000	0.000000	0.000000	2	0	0	0.000000	0.000000	0.000000	0.000000	0.000000	1.000000	0.000000
0.125000	0.000000	0.000000	3	0	0	0.000000	0.000000	0.000000	0.000000	0.000000	1.000000	0.000000
0.175000	0.000000	0.000000	4	0	0	0.000000	0.000000	0.000000	0.000000	0.000000	1.000000	0.000000
0.225000	0.000000	0.000000	5	0	0	0.000000	0.000000	0.000000	0.000000	0.000000	1.000000	0.000000
0.275000	0.000000	0.000000	6	0	0	0.000000	0.000000	0.000000	0.000000	0.000000	1.000000	0.000000
0.325000	0.000000	0.000000	7	0	0	0.000000	0.000000	0.000000	0.000000	0.000000	1.000000	0.000000
0.375000	0.000000	0.000000	8	0	0	0.000000	0.000000	0.000000	0.000000	0.000000	1.000000	0.000000
0.425000	0.000000	0.000000	9	0	0	0.000000	0.000000	0.000000	0.000000	0.000000	1.000000	0.000000
0.475000	0.000000	0.000000	10	0	0	0.000000	0.000000	0.000000	0.000000	0.000000	1.000000	0.000000
0.525000	0.000000	0.000000	11	0	0	0.000000	0.000000	0.000000	0.000000	0.000000	1.000000	0.000000
0.575000	0.000000	0.000000	12	0	0	0.000000	0.000000	0.000000	0.000000	0.000000	1.000000	0.000000
0.625000	0.000000	0.000000	13	0	0	0.000000	0.000000	0.000000	0.000000	0.000000	1.000000	0.000000
0.675000	0.000000	0.000000	14	0	0	0.000000	0.000000	0.000000	0.000000	0.000000	1.000000	0.000000
0.725000	0.000000	0.000000	15	0	0	0.000000	0.000000	0.000000	0.000000	0.000000	1.000000	0.000000
0.775000	0.000000	0.000000	16	0	0	0.000000	0.000000	0.000000	0.000000	0.000000	1.000000	0.000000
0.825000	0.000000	0.000000	17	0	0	0.000000	0.000000	0.000000	0.000000	0.000000	1.000000	0.000000
0.875000	0.000000	0.000000	18	0	0	0.000000	0.000000	0.000000	0.000000	0.000000	1.000000	0.000000
0.925000	0.000000	0.000000	19	0	0	0.000000	0.000000	0.000000	0.000000	0.000000	1.000000	0.000000
0.975000	0.000000	0.000000	20	0	0	0.000000	0.000000	0.000000	0.000000	0.000000	1.000000	0.000000
1.000000	0.000000	0.000000	21	0	0	0.000000	0.000000	0.000000	-0.000004	0.000000	1.000000	0.000000
0.000000	0.025000	0.000000	0	1	0	0.000000	0.000000	0.000000	0.999994	0.000000	1.000000	0.000000
0.025000	0.025000	0.000000	1	1	0	0.000000	0.000000	0.000000	1.166965	0.000000	1.000000	-0.000023
0.075000	0.025000	0.000000	2	1	0	0.000000	0.000000	0.000000	1.343887	0.000000	1.000000	-0.000023
0.125000	0.025000	0.000000	3	1	0	0.000000	0.000000	0.000000	1.493450	0.000000	1.000000	-0.000024
0.175000	0.025000	0.000000	4	1	0	0.000000	0.000000	0.000000	1.630402	0.000000	1.000000	-0.000024
0.225000	0.025000	0.000000	5	1	0	0.000000	0.000000	0.000000	1.739625	0.000000	1.000000	-0.000024
0.275000	0.025000	0.000000	6	1	0	0.000000	0.000000	0.000000	1.775889	0.000000	1.000000	-0.000024
0.325000	0.025000	0.000000	7	1	0	0.000000	0.000000	0.000000	1.706011	0.000000	1.000000	-0.000024
0.375000	0.025000	0.000000	8	1	0	0.000000	0.000000	0.000000	1.585337	0.000000	1.000000	-0.000024
0.425000	0.025000	0.000000	9	1	0	0.000000	0.000000	0.000000	1.456211	0.000000	1.000000	-0.000024
0.475000	0.025000	0.000000	10	1	0	0.000000	0.000000	0.000000	1.332529	0.000000	1.000000	-0.000024
0.525000	0.025000	0.000000	11	1	0	0.000000	0.000000	0.000000	1.215352	0.000000	1.000000	-0.000024
0.575000	0.025000	0.000000	12	1	0	0.000000	0.000000	0.000000	1.103125	0.000000	1.000000	-0.000023
0.625000	0.025000	0.000000	13	1	0	0.000000	0.000000	0.000000	0.995122	0.000000	1.000000	-0.000023
0.675000	0.025000	0.000000	14	1	0	0.000000	0.000000	0.000000	0.891103	0.000000	1.000000	-0.000023
0.725000	0.025000	0.000000	15	1	0	0.000000	0.000000	0.000000	0.790684	0.000000	1.000000	-0.000022
0.775000	0.025000	0.000000	16	1	0	0.000000	0.000000	0.000000	0.692474	0.000000	1.000000	-0.000022
0.825000	0.025000	0.000000	17	1	0	0.000000	0.000000	0.000000	0.593482	0.000000	1.000000	-0.000021
0.875000	0.025000	0.000000	18	1	0	0.000000	0.000000	0.000000	0.487598	0.000000	1.000000	-0.000020
0.925000	0.025000	0.000000	19	1	0	0.000000	0.000000	0.000000	0.361888	0.000000	1.000000	-0.000019
0.975000	0.025000	0.000000	20	1	0	0.000000	0.000000	0.000000	0.191534	0.000000	1.000000	-0.000019
1.000000	0.025000	0.000000	21	1	0	0.000000	0.000000	0.000000	-0.000006	0.000000	1.000000	0.000000
0.000000	0.075000	0.000000	0	2	0	0.000000	0.000000	0.000000	0.999994	0.000000	1.000000	0.000000
0.025000	0.075000	0.000000	1	2	0	0.000000	0.000000	0.000000	1.162581	0.000000	1.000000	-0.000023
0.075000	0.075000	0.000000	2	2	0	0.000000	0.000000	0.000000	1.324062	0.000000	1.000000	-0.000023
0.125000	0.075000	0.000000	3	2	0	0.000000	0.000000	0.000000	1.464342	0.000000	1.000000	-0.000024
0.175000	0.075000	0.000000	4	2	0	0.000000	0.000000	0.000000	1.598044	0.000000	1.000000	-0.000024
0.225000	0.075000	0.000000	5	2	0	0.000000	0.000000	0.000000	1.708322	0.000000	1.000000	-0.000024
0.275000	0.075000	0.000000	6	2	0	0.000000	0.000000	0.000000	1.737665	0.000000	1.000000	-0.000024
0.325000	0.075000	0.000000	7	2	0	0.000000	0.000000	0.000000	1.645138	0.000000	1.000000	-0.000024
0.375000	0.075000	0.000000	8	2	0	0.000000	0.000000	0.000000	1.511664	0.000000	1.000000	-0.000024
0.425000	0.075000	0.000000	9	2	0	0.000000	0.000000	0.000000	1.379922	0.000000	1.000000	-0.000024
0.475000	0.075000	0.000000	10	2	0	0.000000	0.000000	0.000000	1.258788	0.000000	1.000000	-0.000024
0.525000	0.075000	0.000000	11	2	0	0.000000	0.000000	0.000000	1.146691	0.000000	1.000000	-0.000024
0.575000	0.075000	0.000000	12	2	0	0.000000	0.000000	0.000000	1.041500	0.000000	1.000000	-0.000023
0.625000	0.075000	0.000000	13	2	0	0.000000	0.000000	0.000000	0.942393	0.000000	1.000000	-0.000023
0.675000	0.075000	0.000000	14	2	0	0.000000	0.000000	0.000000	0.848963	0.000000	1.000000	-0.000023
0.725000	0.075000	0.000000	15	2	0	0.000000	0.000000	0.000000	0.760453	0.000000	1.000000	-0.000022
0.775000	0.075000	0.000000	16	2	0	0.000000	0.000000	0.000000	0.674852	0.000000	1.000000	-0.000022
0.825000	0.075000	0.000000	17	2	0	0.000000	0.000000	0.000000	0.588364	0.000000	1.000000	-0.000021
0.875000	0.075000	0.000000	18	2	0	0.000000	0.000000	0.000000	0.490928	0.000000	1.000000	-0.000020
0.925000	0.075000	0.000000	19	2	0	0.000000	0.000000	0.000000	0.368867	0.000000	1.000000	-0.000019
0.975000	0.075000	0.000000	20	2	0	0.000000	0.000000	0.000000	0.201678	0.000000	1.000000	-0.000019
1.000000	0.075000	0.000000	21	2	0	0.000000	0.000000	0.000000	-0.000006	0.000000	1.000000	0.000000
0.000000	0.125000	0.000000	0	3	0	0.000000	0.000000	0.000000	0.999994	0.000000	1.000000	0.000000
0.025000	0.125000	0.000000	1	3	0	0.000000	0.000000	0.000000	1.159491	0.000000	1.000000	-0.000023
0.075000	0.125000	0.000000	2	3	0	0.000000	0.000000	0.000000	1.313361	0.000000	1.000000	-0.000023
0.125000	0.125000	0.000000	3	3	0	0.000000	0.000000	0.000000	1.446783	0.000000	1.000000	-0.000024
0.175000	0.125000	0.000000	4	3	0	0.000000	0.000000	0.000000	1.575568	0.000000	1.000000	-0.000024
0.225000	0.125000	0.000000	5	3	0	0.000000	0.000000	0.000000	1.679135	0.000000	1.000000	-0.000024
0.275000	0.125000	0.000000	6	3	0	0.000000	0.000000	0.000000	1.686611	0.000000	1.000000	-0.000024
0.325000	0.125000	0.000000	7	3	0	0.000000	0.000000	0.000000	1.574494	0.000000	1.000000	-0.000024
0.375000	0.125000	0.000000	8	3	0	0.000000	0.000000	0.000000	1.435939	0.000000	1.000000	-0.000024
0.425000	0.125000	0.000000	9	3	0	0.000000	0.000000	0.000000	1.308297	0.000000	1.000000	-0.000024
0.475000	0.125000	0.000000	10	3	0	0.000000	0.000000	0.000000	1.195309	0.000000	1.000000	-0.000024
0.525000	0.125000	0.000000	11	3	0	0.000000	0.000000	0.000000	1.093329	0.000000	1.000000	-0.000024
0.575000	0.125000	0.000000	12	3	0	0.000000	0.000000	0.000000	0.999524	0.000000	1.000000	-0.000023
0.625000	0.125000	0.000000	13	3	0	0.000000	0.000000	0.000000	0.912447	0.000000	1.000000	-0.000023
0.675000	0.125000	0.000000	14	3	0	0.000000	0.000000	0.000000	0.830967	0.000000	1.000000	-0.000023
0.725000	0.125000	0.000000	15	3	0	0.000000	0.000000	0.000000	0.753327	0.000000	1.000000	-0.000022
0.775000	0.125000	0.000000	16	3	0	0.000000	0.000000	0.000000	0.676892	0.000000	1.000000	-0.000022
0.825000	0.125000	0.000000	17	3	0	0.000000	0.000000	0.000000	0.597100	0.000000	1.000000	-0.000021
0.875000	0.125000	0.000000	18	3	0	0.000000	0.000000	0.000000	0.502422	0.000000	1.000000	-0.000020
0.925000	0.125000	0.000000	19	3	0	0.000000	0.000000	0.000000	0.380054	0.000000	1.000000	-0.000019
0.975000	0.125000	0.000000	20	3	0	0.000000	0.000000	0.000000	0.210008	0.000000	1.000000	-0.000019
1.000000	0.125000	0.000000	21	3	0	0.000000	0.000000	0.000000	-0.000006	0.000000	1.000000	0.000000
0.000000	0.175000	0.000000	0	4	0	0.000000	0.000000	0.000000	0.999994	0.000000	1.000000	0.000000
0.025000	0.175000	0.000000	1	4	0	0.000000	0.000000	0.000000	1.158265	0.000000	1.000000	-0.000023
0.075000	0.175000	0.000000	2	4	0	0.000000	0.000000	0.000000	1.309892	0.000000	1.000000	-0.000023
0.125000	0.175000	0.000000	3	4	0	0.000000	0.000000	0.000000	1.440631	0.000000	1.000000	-0.000024
0.175000	0.175000	0.000000	4	4	0	0.000000	0.000000	0.000000	1.566172	0.000000	1.000000	-0.000024
0.225000	0.175000	0.000000	5	4	0	0.000000	0.000000	0.000000	1.660964	0.000000	1.000000	-0.000024
0.275000	0.175000	0.000000	6	4	0	0.000000	0.000000	0.000000	1.644976	0.000000	1.000000	-0.000024
0.325000	0.175000	0.000000	7	4	0	0.000000	0.000000	0.000000	1.522631	0.000000	1.000000	-0.000024
0.375000	0.175000	0.000000	8	4	0	0.000000	0.000000	0.000000	1.385918	0.000000	1.000000	-0.000024
0.425000	0.175000	0.000000	9	4	0	0.000000	0.000000	0.000000	1.264963	0.000000	1.000000	-0.000024
0.475000	0.175000	0.000000	10	4	0	0.000000	0.000000	0.000000	1.160012	0.000000	1.000000	-0.000024
0.525000	0.175000	0.000000	11	4	0	0.000000	0.000000	0.000000	1.066282	0.000000	1.000000	-0.000023
0.575000	0.175000	0.000000	12	4	0	0.000000	0.000000	0.000000	0.980423	0.000000	1.000000	-0.000023
0.625000	0.175000	0.000000	13	4	0	0.000000	0.000000	0.000000	0.900475	0.000000	1.000000	-0.000023
0.675000	0.175000	0.000000	14	4	0	0.000000	0.000000	0.000000	0.824791	0.000000	1.000000	-0.000023
0.725000	0.175000	0.000000	15	4	0	0.000000	0.000000	0.000000	0.751354	0.000000	1.000000	-0.000022
0.775000	0.175000	0.000000	16	4	0	0.000000	0.000000	0.000000	0.677586	0.000000	1.000000	-0.000022
0.825000	0.175000	0.000000	17	4	0	0.000000	0.000000	0.000000	0.599414	0.000000	1.000000	-0.000021
0.875000	0.175000	0.000000	18	4	0	0.000000	0.000000	0.000000	0.505541	0.000000	1.000000	-0.000020
0.925000	0.175000	0.000000	19	4	0	0.000000	0.000000	0.000000	0.383516	0.000000	1.000000	-0.000019
0.975000	0.175000	0.000000	20	4	0	0.000000	0.000000	0.000000	0.213024	0.000000	1.000000	-0.000019
1.000000	0.175000	0.000000	21	4	0	0.000000	0.000000	0.000000	-0.000006	0.000000	1.000000	0.000000
0.000000	0.225000	0.000000	0	5	0	0.000000	0.000000	0.000000	0.999994	0.000000	1.000000	0.000000
0.025000	0.225000	0.000000	1	5	0	0.000000	0.000000	0.000000	1.158060	0.000000	1.000000	-0.000023
0.075000	0.225000	0.000000	2	5	0	0.000000	0.000000	0.000000	1.309665	0.000000	1.000000	-0.000023
0.125000	0.225000	0.000000	3	5	0	0.000000	0.000000	0.000000	1.440103	0.000000	1.000000	-0.000024
0.175000	0.225000	0.000000	4	5	0	0.000000	0.000000	0.000000	1.564161	0.000000	1.000000	-0.000024
0.225000	0.225000	0.000000	5	5	0	0.000000	0.000000	0.000000	1.651489	0.000000	1.000000	-0.000024
0.275000	0.225000	0.000000	6	5	0	0.000000	0.000000	0.000000	1.617637	0.000000	1.000000	-0.000024
0.325000	0.225000	0.000000	7	5	0	0.000000	0.000000	0.000000	1.491544	0.000000	1.000000	-0.000024
0.375000	0.225000	0.000000	8	5	0	0.000000	0.000000	0.000000	1.358759	0.000000	1.000000	-0.000024
0.425000	0.225000	0.000000	9	5	0	0.000000	0.000000	0.000000	1.243363	0.000000	1.000000	-0.000024
0.475000	0.225000	0.000000	10	5	0	0.000000	0.000000	0.000000	1.143591	0.000000	1.000000	-0.000024
0.525000	0.225000	0.000000	11	5	0	0.000000	0.000000	0.000000	1.054219	0.000000	1.000000	-0.000023
0.575000	0.225000	0.000000	12	5	0	0.000000	0.000000	0.000000	0.971773	0.000000	1.000000	-0.000023
0.625000	0.225000	0.000000	13	5	0	0.000000	0.000000	0.000000	0.894224	0.000000	1.000000	-0.000023
0.675000	0.225000	0.000000	14	5	0	0.000000	0.000000	0.000000	0.819947	0.000000	1.000000	-0.000023
0.725000	0.225000	0.000000	15	5	0	0.000000	0.000000	0.000000	0.747094	0.000000	1.000000	-0.000022
0.775000	0.225000	0.000000	16	5	0	0.000000	0.000000	0.000000	0.673329	0.000000	1.000000	-0.000022
0.825000	0.225000	0.000000	17	5	0	0.000000	0.000000	0.000000	0.595566	0.000000	1.000000	-0.000021
0.875000	0.225000	0.000000	18	5	0	0.000000	0.000000	0.000000	0.502605	0.000000	1.000000	-0.000020
0.925000	0.225000	0.000000	19	5	0	0.000000	0.000000	0.000000	0.381977	0.000000	1.000000	-0.000019
0.975000	0.225000	0.000000	20	5	0	0.000000	0.000000	0.000000	0.213056	0.000000	1.000000	-0.000019
1.000000	0.225000	0.000000	21	5	0	0.000000	0.000000	0.000000	-0.000006	0.000000	1.000000	0.000000
0.000000	0.275000	0.000000	0	6	0	0.000000	0.000000	0.000000	0.999994	0.000000	1.000000	0.000000
0.025000	0.275000	0.000000	1	6	0	0.000000	0.000000	0.000000	1.158234	0.000000	1.000000	-0.000023
0.075000	0.275000	0.000000	2	6	0	0.000000	0.000000	0.000000	1.310480	0.000000	1.000000	-0.000023
0.125000	0.275000	0.000000	3	6	0	0.000000	0.000000	0.000000	1.441564	0.000000	1.000000	-0.000024
0.175000	0.275000	0.000000	4	6	0	0.000000	0.000000	0.000000	1.565175	0.000000	1.000000	-0.000024
0.225000	0.275000	0.000000	5	6	0	0.000000	0.000000	0.000000	1.647238	0.000000	1.000000	-0.000024
0.275000	0.275000	0.000000	6	6	0	0.000000	0.000000	0.000000	1.602061	0.000000	1.000000	-0.000024
0.325000	0.275000	0.000000	7	6	0	0.000000	0.000000	0.000000	1.475220	0.000000	1.000000	-0.000024
0.375000	0.275000	0.000000	8	6	0	0.000000	0.000000	0.000000	1.345826	0.000000	1.000000	-0.000024
0.425000	0.275000	0.000000	9	6	0	0.000000	0.000000	0.000000	1.233884	0.000000	1.000000	-0.000024
0.475000	0.275000	0.000000	10	6	0	0.000000	0.000000	0.000000	1.136636	0.000000	1.000000	-0.000024
0.525000	0.275000	0.000000	11	6	0	0.000000	0.000000	0.000000	1.048839	0.000000	1.000000	-0.000023
0.575000	0.275000	0.000000	12	6	0	0.000000	0.000000	0.000000	0.967185	0.000000	1.000000	-0.000023
0.625000	0.275000	0.000000	13	6	0	0.000000	0.000000	0.000000	0.889853	0.000000	1.000000	-0.000023
0.675000	0.275000	0.000000	14	6	0	0.000000	0.000000	0.000000	0.815465	0.000000	1.000000	-0.000023
0.725000	0.275000	0.000000	15	6	0	0.000000	0.000000	0.000000	0.742410	0.000000	1.000000	-0.000022
0.775000	0.275000	0.000000	16	6	0	0.000000	0.000000	0.000000	0.668544	0.000000	1.000000	-0.000022
0.825000	0.275000	0.000000	17	6	0	0.000000	0.000000	0.000000	0.590928	0.000000	1.000000	-0.000021
0.875000	0.275000	0.000000	18	6	0	0.000000	0.000000	0.000000	0.498924	0.000000	1.000000	-0.000020
0.925000	0.275000	0.000000	19	6	0	0.000000	0.000000	0.000000	0.379697	0.000000	1.000000	-0.000019
0.975000	0.275000	0.000000	20	6	0	0.000000	0.000000	0.000000	0.212424	0.000000	1.000000	-0.000019
1.000000	0.275000	0.000000	21	6	0	0.000000	0.000000	0.000000	-0.000006	0.000000	1.000000	0.000000
0.000000	0.325000	0.000000	0	7	0	0.000000	0.000000	0.000000	0.999994	0.000000	1.000000	0.000000
0.025000	0.325000	0.000000	1	7	0	0.000000	0.000000	0.000000	1.158482	0.000000	1.000000	-0.000023
0.075000	0.325000	0.000000	2	7	0	0.000000	0.000000	0.000000	1.311419	0.000000	1.000000	-0.000023
0.125000	0.325000	0.000000	3	7	0	0.000000	0.000000	0.000000	1.443339	0.000000	1.000000	-0.000024
0.175000	0.325000	0.000000	4	7	0	0.000000	0.000000	0.000000	1.566980	0.000000	1.000000	-0.000024
0.225000	0.325000	0.000000	5	7	0	0.000000	0.000000	0.000000	1.645795	0.000000	1.000000	-0.000024
0.275000	0.325000	0.000000	6	7	0	0.000000	0.000000	0.000000	1.594324	0.000000	1.000000	-0.000024
0.325000	0.325000	0.000000	7	7	0	0.000000	0.000000	0.000000	1.467763	0.000000	1.000000	-0.000024
0.375000	0.325000	0.000000	8	7	0	0.000000	0.000000	0.000000	1.340578	0.000000	1.000000	-0.000024
0.425000	0.325000	0.000000	9	7	0	0.000000	0.000000	0.000000	1.230404	0.000000	1.000000	-0.000024
0.475000	0.325000	0.000000	10	7	0	0.000000	0.000000	0.000000	1.134095	0.000000	1.000000	-0.000024
0.525000	0.325000	0.000000	11	7	0	0.000000	0.000000	0.000000	1.046565	0.000000	1.000000	-0.000023
0.575000	0.325000	0.000000	12	7	0	0.000000	0.000000	0.000000	0.964746	0.000000	1.000000	-0.000023
0.625000	0.325000	0.000000	13	7	0	0.000000	0.000000	0.000000	0.887061	0.000000	1.000000	-0.000023
0.675000	0.325000	0.000000	14	7	0	0.000000	0.000000	0.000000	0.812343	0.000000	1.000000	-0.000023
0.725000	0.325000	0.000000	15	7	0	0.000000	0.000000	0.000000	0.739122	0.000000	1.000000	-0.000022
0.775000	0.325000	0.000000	16	7	0	0.000000	0.000000	0.000000	0.665306	0.000000	1.000000	-0.000022
0.825000	0.325000	0.000000	17	7	0	0.000000	0.000000	0.000000	0.587951	0.000000	1.000000	-0.000021
0.875000	0.325000	0.000000	18	7	0	0.000000	0.000000	0.000000	0.496679	0.000000	1.000000	-0.000020
0.925000	0.325000	0.000000	19	7	0	0.000000	0.000000	0.000000	0.378352	0.000000	1.000000	-0.000019
0.975000	0.325000	0.000000	20	7	0	0.000000	0.000000	0.000000	0.212055	0.000000	1.000000	-0.000019
1.000000	0.325000	0.000000	21	7	0	0.000000	0.000000	0.000000	-0.000006	0.000000	1.000000	0.000000
0.000000	0.375000	0.000000	0	8	0	0.000000	0.000000	0.000000	0.999994	0.000000	1.000000	0.000000
0.025000	0.375000	0.000000	1	8	0	0.000000	0.000000	0.000000	1.158690	0.000000	1.000000	-0.000023
0.075000	0.375000	0.000000	2	8	0	0.000000	0.000000	0.000000	1.312164	0.000000	1.000000	-0.000023
0.125000	0.375000	0.000000	3	8	0	0.000000	0.000000	0.000000	1.444781	0.000000	1.000000	-0.000024
0.175000	0.375000	0.000000	4	8	0	0.000000	0.000000	0.000000	1.568617	0.000000	1.000000	-0.000024
0.225000	0.375000	0.000000	5	8	0	0.000000	0.000000	0.000000	1.645676	0.000000	1.000000	-0.000024
0.275000	0.375000	0.000000	6	8	0	0.000000	0.000000	0.000000	1.591128	0.000000	1.000000	-0.000024
0.325000	0.375000	0.000000	7	8	0	0.000000	0.000000	0.000000	1.465044	0.000000	1.000000	-0.000024
0.375000	0.375000	0.000000	8	8	0	0.000000	0.000000	0.000000	1.339081	0.000000	1.000000	-0.000024
0.425000	0.375000	0.000000	9	8	0	0.000000	0.000000	0.000000	1.229674	0.000000	1.000000	-0.000024
0.475000	0.375000	0.000000	10	8	0	0.000000	0.000000	0.000000	1.133589	0.000000	1.000000	-0.000024
0.525000	0.375000	0.000000	11	8	0	0.000000	0.000000	0.000000	1.045912	0.000000	1.000000	-0.000023
0.575000	0.375000	0.000000	12	8	0	0.000000	0.000000	0.000000	0.963768	0.000000	1.000000	-0.000023
0.625000	0.375000	0.000000	13	8	0	0.000000	0.000000	0.000000	0.885751	0.000000	1.000000	-0.000023
0.675000	0.375000	0.000000	14	8	0	0.000000	0.000000	0.000000	0.810815	0.000000	1.000000	-0.000023
0.725000	0.375000	0.000000	15	8	0	0.000000	0.000000	0.000000	0.737543	0.000000	1.000000	-0.000022
0.775000	0.375000	0.000000	16	8	0	0.000000	0.000000	0.000000	0.663833	0.000000	1.000000	-0.000022
0.825000	0.375000	0.000000	17	8	0	0.000000	0.000000	0.000000	0.586701	0.000000	1.000000	-0.000021
0.875000	0.375000	0.000000	18	8	0	0.000000	0.000000	0.000000	0.495849	0.000000	1.000000	-0.000020
0.925000	0.375000	0.000000	19	8	0	0.000000	0.000000	0.000000	0.377936	0.000000	1.000000	-0.000019
0.975000	0.375000	0.000000	20	8	0	0.000000	0.000000	0.000000	0.212020	0.000000	1.000000	-0.000019
1.000000	0.375000	0.000000	21	8	0	0.000000	0.000000	0.000000	-0.000006	0.000000	1.000000	0.000000
0.000000	0.425000	0.000000	0	9	0	0.000000	0.000000	0.000000	0.999994	0.000000	1.000000	0.000000
0.025000	0.425000	0.000000	1	9	0	0.000000	0.000000	0.000000	1.158828	0.000000	1.000000	-0.000023
0.075000	0.425000	0.000000	2	9	0	0.000000	0.000000	0.000000	1.312647	0.000000	1.000000	-0.000023
0.125000	0.425000	0.000000	3	9	0	0.000000	0.000000	0.000000	1.445727	0.000000	1.000000	-0.000024
0.175000	0.425000	0.000000	4	9	0	0.000000	0.000000	0.000000	1.569756	0.000000	1.000000	-0.000024
0.225000	0.425000	0.000000	5	9	0	0.000000	0.000000	0.000000	1.645998	0.000000	1.000000	-0.000024
0.275000	0.425000	0.000000	6	9	0	0.000000	0.000000	0.000000	1.590168	0.000000	1.000000	-0.000024
0.325000	0.425000	0.000000	7	9	0	0.000000	0.000000	0.000000	1.464468	0.000000	1.000000	-0.000024
0.375000	0.425000	0.000000	8	9	0	0.000000	0.000000	0.000000	1.339098	0.000000	1.000000	-0.000024
0.425000	0.425000	0.000000	9	9	0	0.000000	0.000000	0.000000	1.229968	0.000000	1.000000	-0.000024
0.475000	0.425000	0.000000	10	9	0	0.000000	0.000000	0.000000	1.133869	0.000000	1.000000	-0.000024
0.525000	0.425000	0.000000	11	9	0	0.000000	0.000000	0.000000	1.046007	0.000000	1.000000	-0.000023
0.575000	0.425000	0.000000	12	9	0	0.000000	0.000000	0.000000	0.963626	0.000000	1.000000	-0.000023
0.625000	0.425000	0.000000	13	9	0	0.000000	0.000000	0.000000	0.885410	0.000000	1.000000	-0.000023
0.675000	0.425000	0.000000	14	9	0	0.000000	0.000000	0.000000	0.810366	0.000000	1.000000	-0.000023
0.725000	0.425000	0.000000	15	9	0	0.000000	0.000000	0.000000	0.737089	0.000000	1.000000	-0.000022
0.775000	0.425000	0.000000	16	9	0	0.000000	0.000000	0.000000	0.663452	0.000000	1.000000	-0.000022
0.825000	0.425000	0.000000	17	9	0	0.000000	0.000000	0.000000	0.586432	0.000000	1.000000	-0.000021
0.875000	0.425000	0.000000	18	9	0	0.000000	0.000000	0.000000	0.495766	0.000000	1.000000	-0.000020
0.925000	0.425000	0.000000	19	9	0	0.000000	0.000000	0.000000	0.377982	0.000000	1.000000	-0.000019
0.975000	0.425000	0.000000	20	9	0	0.000000	0.000000	0.000000	0.212136	0.000000	1.000000	-0.000019
1.000000	0.425000	0.000000	21	9	0	0.000000	0.000000	0.000000	-0.000006	0.000000	1.000000	0.000000
0.000000	0.475000	0.000000	0	10	0	0.000000	0.000000	0.000000	0.999994	0.000000	1.000000	0.000000
0.025000	0.475000	0.000000	1	10	0	0.000000	0.000000	0.000000	1.158895	0.000000	1.000000	-0.000023
0.075000	0.475000	0.000000	2	10	0	0.000000	0.000000	0.000000	1.312878	0.000000	1.000000	-0.000023
0.125000	0.475000	0.000000	3	10	0	0.000000	0.000000	0.000000	1.446183	0.000000	1.000000	-0.000024
0.175000	0.475000	0.000000	4	10	0	0.000000	0.000000	0.000000	1.570325	0.000000	1.000000	-0.000024
0.225000	0.475000	0.000000	5	10	0	0.000000	0.000000	0.000000	1.646271	0.000000	1.000000	-0.000024
0.275000	0.475000	0.000000	6	10	0	0.000000	0.000000	0.000000	1.590027	0.000000	1.000000	-0.000024
0.325000	0.475000	0.000000	7	10	0	0.000000	0.000000	0.000000	1.464532	0.000000	1.000000	-0.000024
0.375000	0.475000	0.000000	8	10	0	0.000000	0.000000	0.000000	1.339391	0.000000	1.000000	-0.000024
0.425000	0.475000	0.000000	9	10	0	0.000000	0.000000	0.000000	1.230338	0.000000	1.000000	-0.000024
0.475000	0.475000	0.000000	10	10	0	0.000000	0.000000	0.000000	1.134193	0.000000	1.000000	-0.000024
0.525000	0.475000	0.000000	11	10	0	0.000000	0.000000	0.000000	1.046227	0.000000	1.000000	-0.000023
0.575000	0.475000	0.000000	12	10	0	0.000000	0.000000	0.000000	0.963730	0.000000	1.000000	-0.000023
0.625000	0.475000	0.000000	13	10	0	0.000000	0.000000	0.000000	0.885424	0.000000	1.000000	-0.000023
0.675000	0.475000	0.000000	14	10	0	0.000000	0.000000	0.000000	0.810336	0.000000	1.000000	-0.000023
0.725000	0.475000	0.000000	15	10	0	0.000000	0.000000	0.000000	0.737058	0.000000	1.000000	-0.000022
0.775000	0.475000	0.000000	16	10	0	0.000000	0.000000	0.000000	0.663449	0.000000	1.000000	-0.000022
0.825000	0.475000	0.000000	17	10	0	0.000000	0.000000	0.000000	0.586470	0.000000	1.000000	-0.000021
0.875000	0.475000	0.000000	18	10	0	0.000000	0.000000	0.000000	0.495863	0.000000	1.000000	-0.000020
0.925000	0.475000	0.000000	19	10	0	0.000000	0.000000	0.000000	0.378099	0.000000	1.000000	-0.000019
0.975000	0.475000	0.000000	20	10	0	0.000000	0.000000	0.000000	0.212235	0.000000	1.000000	-0.000019
1.000000	0.475000	0.000000	21	10	0	0.000000	0.000000	0.000000	-0.000006	0.000000	1.000000	0.000000
0.000000	0.525000	0.000000	0	11	0	0.000000	0.000000	0.000000	0.999994	0.000000	1.000000	0.000000
0.025000	0.525000	0.000000	1	11	0	0.000000	0.000000	0.000000	1.158894	0.000000	1.000000	-0.000023
0.075000	0.525000	0.000000	2	11	0	0.000000	0.000000	0.000000	1.312876	0.000000	1.000000	-0.000023
0.125000	0.525000	0.000000	3	11	0	0.000000	0.000000	0.000000	1.446180	0.000000	1.000000	-0.000024
0.175000	0.525000	0.000000	4	11	0	0.000000	0.000000	0.000000	1.570322	0.000000	1.000000	-0.000024
0.225000	0.525000	0.000000	5	11	0	0.000000	0.000000	0.000000	1.646271	0.000000	1.000000	-0.000024
0.275000	0.525000	0.000000	6	11	0	0.000000	0.000000	0.000000	1.590030	0.000000	1.000000	-0.000024
0.325000	0.525000	0.000000	7	11	0	0.000000	0.000000	0.000000	1.464535	0.000000	1.000000	-0.000024
0.375000	0.525000	0.000000	8	11	0	0.000000	0.000000	0.000000	1.339392	0.000000	1.000000	-0.000024
0.425000	0.525000	0.000000	9	11	0	0.000000	0.000000	0.000000	1.230338	0.000000	1.000000	-0.000024
0.475000	0.525000	0.000000	10	11	0	0.000000	0.000000	0.000000	1.134193	0.000000	1.000000	-0.000024
0.525000	0.525000	0.000000	11	11	0	0.000000	0.000000	0.000000	1.046226	0.000000	1.000000	-0.000023
0.575000	0.525000	0.000000	12	11	0	0.000000	0.000000	0.000000	0.963728	0.000000	1.000000	-0.000023
0.625000	0.525000	0.000000	13	11	0	0.000000	0.000000	0.000000	0.885422	0.000000	1.000000	-0.000023
0.675000	0.525000	0.000000	14	11	0	0.000000	0.000000	0.000000	0.810334	0.000000	1.000000	-0.000023
0.725000	0.525000	0.000000	15	11	0	0.000000	0.000000	0.000000	0.737056	0.000000	1.000000	-0.000022
0.775000	0.525000	0.000000	16	11	0	0.000000	0.000000	0.000000	0.663447	0.000000	1.000000	-0.000022
0.825000	0.525000	0.000000	17	11	0	0.000000	0.000000	0.000000	0.586467	0.000000	1.000000	-0.000021
0.875000	0.525000	0.000000	18	11	0	0.000000	0.000000	0.000000	0.495861	0.000000	1.000000	-0.000020
0.925000	0.525000	0.000000	19	11	0	0.000000	0.000000	0.000000	0.378098	0.000000	1.000000	-0.000019
0.975000	0.525000	0.000000	20	11	0	0.000000	0.000000	0.000000	0.212234	0.000000	1.000000	-0.000019
1.000000	0.525000	0.000000	21	11	0	0.000000	0.000000	0.000000	-0.000006	0.000000	1.000000	0.000000
0.000000	0.575000	0.000000	0	12	0	0.000000	0.000000	0.000000	0.999994	0.000000	1.000000	0.000000
0.025000	0.575000	0.000000	1	12	0	0.000000	0.000000	0.000000	1.158824	0.000000	1.000000	-0.000023
0.075000	0.575000	0.000000	2	12	0	0.000000	0.000000	0.000000	1.312639	0.000000	1.000000	-0.000023
0.125000	0.575000	0.000000	3	12	0	0.000000	0.000000	0.000000	1.445717	0.000000	1.000000	-0.000024
0.175000	0.575000	0.000000	4	12	0	0.000000	0.000000	0.000000	1.569746	0.000000	1.000000	-0.000024
0.225000	0.575000	0.000000	5	12	0	0.000000	0.000000	0.000000	1.645997	0.000000	1.000000	-0.000024
0.275000	0.575000	0.000000	6	12	0	0.000000	0.000000	0.000000	1.590182	0.000000	1.000000	-0.000024
0.325000	0.575000	0.000000	7	12	0	0.000000	0.000000	0.000000	1.464481	0.000000	1.000000	-0.000024
0.375000	0.575000	0.000000	8	12	0	0.000000	0.000000	0.000000	1.339104	0.000000	1.000000	-0.000024
0.425000	0.575000	0.000000	9	12	0	0.000000	0.000000	0.000000	1.229970	0.000000	1.000000	-0.000024
0.475000	0.575000	0.000000	10	12	0	0.000000	0.000000	0.000000	1.133867	0.000000	1.000000	-0.000024
0.525000	0.575000	0.000000	11	12	0	0.000000	0.000000	0.000000	1.046004	0.000000	1.000000	-0.000023
0.575000	0.575000	0.000000	12	12	0	0.000000	0.000000	0.000000	0.963622	0.000000	1.000000	-0.000023
0.625000	0.575000	0.000000	13	12	0	0.000000	0.000000	0.000000	0.885404	0.000000	1.000000	-0.000023
0.675000	0.575000	0.000000	14	12	0	0.000000	0.000000	0.000000	0.810361	0.000000	1.000000	-0.000023
0.725000	0.575000	0.000000	15	12	0	0.000000	0.000000	0.000000	0.737083	0.000000	1.000000	-0.000022
0.775000	0.575000	0.000000	16	12	0	0.000000	0.000000	0.000000	0.663445	0.000000	1.000000	-0.000022
0.825000	0.575000	0.000000	17	12	0	0.000000	0.000000	0.000000	0.586426	0.000000	1.000000	-0.000021
0.875000	0.575000	0.000000	18	12	0	0.000000	0.000000	0.000000	0.495760	0.000000	1.000000	-0.000020
0.925000	0.575000	0.000000	19	12	0	0.000000	0.000000	0.000000	0.377978	0.000000	1.000000	-0.000019
0.975000	0.575000	0.000000	20	12	0	0.000000	0.000000	0.000000	0.212133	0.000000	1.000000	-0.000019
1.000000	0.575000	0.000000	21	12	0	0.000000	0.000000	0.000000	-0.000006	0.000000	1.000000	0.000000
0.000000	0.625000	0.000000	0	13	0	0.000000	0.000000	0.000000	0.999994	0.000000	1.000000	0.000000
0.025000	0.625000	0.000000	1	13	0	0.000000	0.000000	0.000000	1.158682	0.000000	1.000000	-0.000023
0.075000	0.625000	0.000000	2	13	0	0.000000	0.000000	0.000000	1.312148	0.000000	1.000000	-0.000023
0.125000	0.625000	0.000000	3	13	0	0.000000	0.000000	0.000000	1.444760	0.000000	1.000000	-0.000024
0.175000	0.625000	0.000000	4	13	0	0.000000	0.000000	0.000000	1.568595	0.000000	1.000000	-0.000024
0.225000	0.625000	0.000000	5	13	0	0.000000	0.000000	0.000000	1.645673	0.000000	1.000000	-0.000024
0.275000	0.625000	0.000000	6	13	0	0.000000	0.000000	0.000000	1.591162	0.000000	1.000000	-0.000024
0.325000	0.625000	0.000000	7	13	0	0.000000	0.000000	0.000000	1.465077	0.000000	1.000000	-0.000024
0.375000	0.625000	0.000000	8	13	0	0.000000	0.000000	0.000000	1.339100	0.000000	1.000000	-0.000024
0.425000	0.625000	0.000000	9	13	0	0.000000	0.000000	0.000000	1.229682	0.000000	1.000000	-0.000024
0.475000	0.625000	0.000000	10	13	0	0.000000	0.000000	0.000000	1.133590	0.000000	1.000000	-0.000024
0.525000	0.625000	0.000000	11	13	0	0.000000	0.000000	0.000000	1.045909	0.000000	1.000000	-0.000023
0.575000	0.625000	0.000000	12	13	0	0.000000	0.000000	0.000000	0.963763	0.000000	1.000000	-0.000023
0.625000	0.625000	0.000000	13	13	0	0.000000	0.000000	0.000000	0.885746	0.000000	1.000000	-0.000023
0.675000	0.625000	0.000000	14	13	0	0.000000	0.000000	0.000000	0.810809	0.000000	1.000000	-0.000023
0.725000	0.625000	0.000000	15	13	0	0.000000	0.000000	0.000000	0.737536	0.000000	1.000000	-0.000022
0.775000	0.625000	0.000000	16	13	0	0.000000	0.000000	0.000000	0.663825	0.000000	1.000000	-0.000022
0.825000	0.625000	0.000000	17	13	0	0.000000	0.000000	0.000000	0.586693	0.000000	1.000000	-0.000021