TITLE = "dt=1.000000s, t=7260.000000s, nu=0.000016, Lx=1.000000, Ly=1.000000, Lz=1.000000, Nx=12, Ny=12, Nz=12 "
VARIABLES =X, Y, Z, I, J, K, U, V, W, T, Xi, FlagP, P 
ZONE F=POINT, I=12, J=12, K=12
0.000000	0.000000	0.000000	0	0	0	0.000000	0.000000	0.000000	19.263931	0.000000	1.000000	0.000000
0.050000	0.000000	0.000000	1	0	0	0.000000	0.000000	0.000000	19.262201	0.000000	1.000000	0.000000
0.150000	0.000000	0.000000	2	0	0	0.000000	0.000000	0.000000	19.262201	0.000000	1.000000	0.000000
0.250000	0.000000	0.000000	3	0	0	0.000000	0.000000	0.000000	19.262201	0.000000	1.000000	0.000000
0.350000	0.000000	0.000000	4	0	0	0.000000	0.000000	0.000000	19.262201	0.000000	1.000000	0.000000
0.450000	0.000000	0.000000	5	0	0	0.000000	0.000000	0.000000	19.262201	0.000000	1.000000	0.000000
0.550000	0.000000	0.000000	6	0	0	0.000000	0.000000	0.000000	19.262201	0.000000	1.000000	0.000000
0.650000	0.000000	0.000000	7	0	0	0.000000	0.000000	0.000000	19.262201	0.000000	1.000000	0.000000
0.750000	0.000000	0.000000	8	0	0	0.000000	0.000000	0.000000	19.262201	0.000000	1.000000	0.000000
0.850000	0.000000	0.000000	9	0	0	0.000000	0.000000	0.000000	19.262201	0.000000	1.000000	0.000000
0.950000	0.000000	0.000000	10	0	0	0.000000	0.000000	0.000000	19.262201	0.000000	1.000000	0.000000
1.000000	0.000000	0.000000	11	0	0	0.000000	0.000000	0.000000	19.263931	0.000000	1.000000	0.000000
0.000000	0.050000	0.000000	0	1	0	0.000000	0.000000	0.000000	19.267389	0.000000	1.000000	0.000000
0.050000	0.050000	0.000000	1	1	0	0.000000	0.000000	0.000000	19.267389	0.000000	1.000000	0.054764
0.150000	0.050000	0.000000	2	1	0	0.000000	0.000000	0.000000	19.267389	0.000000	1.000000	0.054910
0.250000	0.050000	0.000000	3	1	0	0.000000	0.000000	0.000000	19.267389	0.000000	1.000000	0.053134
0.350000	0.050000	0.000000	4	1	0	0.000000	0.000000	0.000000	19.267389	0.000000	1.000000	0.052279
0.450000	0.050000	0.000000	5	1	0	0.000000	0.000000	0.000000	19.267389	0.000000	1.000000	0.052111
0.550000	0.050000	0.000000	6	1	0	0.000000	0.000000	0.000000	19.267389	0.000000	1.000000	0.052199
0.650000	0.050000	0.000000	7	1	0	0.000000	0.000000	0.000000	19.267389	0.000000	1.000000	0.052501
0.750000	0.050000	0.000000	8	1	0	0.000000	0.000000	0.000000	19.267389	0.000000	1.000000	0.052955
0.850000	0.050000	0.000000	9	1	0	0.000000	0.000000	0.000000	19.267389	0.000000	1.000000	0.053277
0.950000	0.050000	0.000000	10	1	0	0.000000	0.000000	0.000000	19.267389	0.000000	1.000000	0.053438
1.000000	0.050000	0.000000	11	1	0	0.000000	0.000000	0.000000	19.267389	0.000000	1.000000	0.000000
0.000000	0.150000	0.000000	0	2	0	0.000000	0.000000	0.000000	19.267389	0.000000	1.000000	0.000000
0.050000	0.150000	0.000000	1	2	0	0.000000	0.000000	0.000000	19.267389	0.000000	1.000000	0.056666
0.150000	0.150000	0.000000	2	2	0	0.000000	0.000000	0.000000	19.267389	0.000000	1.000000	0.056056
0.250000	0.150000	0.000000	3	2	0	0.000000	0.000000	0.000000	19.267389	0.000000	1.000000	0.053577
0.350000	0.150000	0.000000	4	2	0	0.000000	0.000000	0.000000	19.267389	0.000000	1.000000	0.052459
0.450000	0.150000	0.000000	5	2	0	0.000000	0.000000	0.000000	19.267389	0.000000	1.000000	0.052192
0.550000	0.150000	0.000000	6	2	0	0.000000	0.000000	0.000000	19.267389	0.000000	1.000000	0.052190
0.650000	0.150000	0.000000	7	2	0	0.000000	0.000000	0.000000	19.267389	0.000000	1.000000	0.052481
0.750000	0.150000	0.000000	8	2	0	0.000000	0.000000	0.000000	19.267389	0.000000	1.000000	0.052980
0.850000	0.150000	0.000000	9	2	0	0.000000	0.000000	0.000000	19.267389	0.000000	1.000000	0.053156
0.950000	0.150000	0.000000	10	2	0	0.000000	0.000000	0.000000	19.267389	0.000000	1.000000	0.052998
1.000000	0.150000	0.000000	11	2	0	0.000000	0.000000	0.000000	19.267389	0.000000	1.000000	0.000000
0.000000	0.250000	0.000000	0	3	0	0.000000	0.000000	0.000000	19.267389	0.000000	1.000000	0.000000
0.050000	0.250000	0.000000	1	3	0	0.000000	0.000000	0.000000	19.267389	0.000000	1.000000	0.057380
0.150000	0.250000	0.000000	2	3	0	0.000000	0.000000	0.000000	19.267389	0.000000	1.000000	0.056309
0.250000	0.250000	0.000000	3	3	0	0.000000	0.000000	0.000000	19.267389	0.000000	1.000000	0.053654
0.350000	0.250000	0.000000	4	3	0	0.000000	0.000000	0.000000	19.267389	0.000000	1.000000	0.052575
0.450000	0.250000	0.000000	5	3	0	0.000000	0.000000	0.000000	19.267389	0.000000	1.000000	0.052301
0.550000	0.250000	0.000000	6	3	0	0.000000	0.000000	0.000000	19.267389	0.000000	1.000000	0.052348
0.650000	0.250000	0.000000	7	3	0	0.000000	0.000000	0.000000	19.267389	0.000000	1.000000	0.052767
0.750000	0.250000	0.000000	8	3	0	0.000000	0.000000	0.000000	19.267389	0.000000	1.000000	0.053271
0.850000	0.250000	0.000000	9	3	0	0.000000	0.000000	0.000000	19.267389	0.000000	1.000000	0.052851
0.950000	0.250000	0.000000	10	3	0	0.000000	0.000000	0.000000	19.267389	0.000000	1.000000	0.052398
1.000000	0.250000	0.000000	11	3	0	0.000000	0.000000	0.000000	19.267389	0.000000	1.000000	0.000000
0.000000	0.350000	0.000000	0	4	0	0.000000	0.000000	0.000000	19.267389	0.000000	1.000000	0.000000
0.050000	0.350000	0.000000	1	4	0	0.000000	0.000000	0.000000	19.267389	0.000000	1.000000	0.056405
0.150000	0.350000	0.000000	2	4	0	0.000000	0.000000	0.000000	19.267389	0.000000	1.000000	0.055358
0.250000	0.350000	0.000000	3	4	0	0.000000	0.000000	0.000000	19.267389	0.000000	1.000000	0.053247
0.350000	0.350000	0.000000	4	4	0	0.000000	0.000000	0.000000	19.267389	0.000000	1.000000	0.052514
0.450000	0.350000	0.000000	5	4	0	0.000000	0.000000	0.000000	19.267389	0.000000	1.000000	0.052400
0.550000	0.350000	0.000000	6	4	0	0.000000	0.000000	0.000000	19.267389	0.000000	1.000000	0.052696
0.650000	0.350000	0.000000	7	4	0	0.000000	0.000000	0.000000	19.267389	0.000000	1.000000	0.053373
0.750000	0.350000	0.000000	8	4	0	0.000000	0.000000	0.000000	19.267389	0.000000	1.000000	0.053155
0.850000	0.350000	0.000000	9	4	0	0.000000	0.000000	0.000000	19.267389	0.000000	1.000000	0.052356
0.950000	0.350000	0.000000	10	4	0	0.000000	0.000000	0.000000	19.267389	0.000000	1.000000	0.051868
1.000000	0.350000	0.000000	11	4	0	0.000000	0.000000	0.000000	19.267389	0.000000	1.000000	0.000000
0.000000	0.450000	0.000000	0	5	0	0.000000	0.000000	0.000000	19.267389	0.000000	1.000000	0.000000
0.050000	0.450000	0.000000	1	5	0	0.000000	0.000000	0.000000	19.267389	0.000000	1.000000	0.054397
0.150000	0.450000	0.000000	2	5	0	0.000000	0.000000	0.000000	19.267389	0.000000	1.000000	0.053962
0.250000	0.450000	0.000000	3	5	0	0.000000	0.000000	0.000000	19.267389	0.000000	1.000000	0.052797
0.350000	0.450000	0.000000	4	5	0	0.000000	0.000000	0.000000	19.267389	0.000000	1.000000	0.052498
0.450000	0.450000	0.000000	5	5	0	0.000000	0.000000	0.000000	19.267389	0.000000	1.000000	0.052676
0.550000	0.450000	0.000000	6	5	0	0.000000	0.000000	0.000000	19.267389	0.000000	1.000000	0.053189
0.650000	0.450000	0.000000	7	5	0	0.000000	0.000000	0.000000	19.267389	0.000000	1.000000	0.053653
0.750000	0.450000	0.000000	8	5	0	0.000000	0.000000	0.000000	19.267389	0.000000	1.000000	0.052717
0.850000	0.450000	0.000000	9	5	0	0.000000	0.000000	0.000000	19.267389	0.000000	1.000000	0.052250
0.950000	0.450000	0.000000	10	5	0	0.000000	0.000000	0.000000	19.267389	0.000000	1.000000	0.051739
1.000000	0.450000	0.000000	11	5	0	0.000000	0.000000	0.000000	19.267389	0.000000	1.000000	0.000000
0.000000	0.550000	0.000000	0	6	0	0.000000	0.000000	0.000000	19.267389	0.000000	1.000000	0.000000
0.050000	0.550000	0.000000	1	6	0	0.000000	0.000000	0.000000	19.267389	0.000000	1.000000	0.052717
0.150000	0.550000	0.000000	2	6	0	0.000000	0.000000	0.000000	19.267389	0.000000	1.000000	0.052892
0.250000	0.550000	0.000000	3	6	0	0.000000	0.000000	0.000000	19.267389	0.000000	1.000000	0.052513
0.350000	0.550000	0.000000	4	6	0	0.000000	0.000000	0.000000	19.267389	0.000000	1.000000	0.052693
0.450000	0.550000	0.000000	5	6	0	0.000000	0.000000	0.000000	19.267389	0.000000	1.000000	0.053223
0.550000	0.550000	0.000000	6	6	0	0.000000	0.000000	0.000000	19.267389	0.000000	1.000000	0.053619
0.650000	0.550000	0.000000	7	6	0	0.000000	0.000000	0.000000	19.267389	0.000000	1.000000	0.052999
0.750000	0.550000	0.000000	8	6	0	0.000000	0.000000	0.000000	19.267389	0.000000	1.000000	0.052563
0.850000	0.550000	0.000000	9	6	0	0.000000	0.000000	0.000000	19.267389	0.000000	1.000000	0.052945
0.950000	0.550000	0.000000	10	6	0	0.000000	0.000000	0.000000	19.267389	0.000000	1.000000	0.052607
1.000000	0.550000	0.000000	11	6	0	0.000000	0.000000	0.000000	19.267389	0.000000	1.000000	0.000000
0.000000	0.650000	0.000000	0	7	0	0.000000	0.000000	0.000000	19.267389	0.000000	1.000000	0.000000
0.050000	0.650000	0.000000	1	7	0	0.000000	0.000000	0.000000	19.267389	0.000000	1.000000	0.051911
0.150000	0.650000	0.000000	2	7	0	0.000000	0.000000	0.000000	19.267389	0.000000	1.000000	0.052327
0.250000	0.650000	0.000000	3	7	0	0.000000	0.000000	0.000000	19.267389	0.000000	1.000000	0.052488
0.350000	0.650000	0.000000	4	7	0	0.000000	0.000000	0.000000	19.267389	0.000000	1.000000	0.053157
0.450000	0.650000	0.000000	5	7	0	0.000000	0.000000	0.000000	19.267389	0.000000	1.000000	0.053810
0.550000	0.650000	0.000000	6	7	0	0.000000	0.000000	0.000000	19.267389	0.000000	1.000000	0.053091
0.650000	0.650000	0.000000	7	7	0	0.000000	0.000000	0.000000	19.267389	0.000000	1.000000	0.052616
0.750000	0.650000	0.000000	8	7	0	0.000000	0.000000	0.000000	19.267389	0.000000	1.000000	0.053000
0.850000	0.650000	0.000000	9	7	0	0.000000	0.000000	0.000000	19.267389	0.000000	1.000000	0.054732
0.950000	0.650000	0.000000	10	7	0	0.000000	0.000000	0.000000	19.267389	0.000000	1.000000	0.055611
1.000000	0.650000	0.000000	11	7	0	0.000000	0.000000	0.000000	19.267389	0.000000	1.000000	0.000000
0.000000	0.750000	0.000000	0	8	0	0.000000	0.000000	0.000000	19.267389	0.000000	1.000000	0.000000
0.050000	0.750000	0.000000	1	8	0	0.000000	0.000000	0.000000	19.267389	0.000000	1.000000	0.051811
0.150000	0.750000	0.000000	2	8	0	0.000000	0.000000	0.000000	19.267389	0.000000	1.000000	0.052255
0.250000	0.750000	0.000000	3	8	0	0.000000	0.000000	0.000000	19.267389	0.000000	1.000000	0.052819
0.350000	0.750000	0.000000	4	8	0	0.000000	0.000000	0.000000	19.267389	0.000000	1.000000	0.053743
0.450000	0.750000	0.000000	5	8	0	0.000000	0.000000	0.000000	19.267389	0.000000	1.000000	0.053346
0.550000	0.750000	0.000000	6	8	0	0.000000	0.000000	0.000000	19.267389	0.000000	1.000000	0.052697
0.650000	0.750000	0.000000	7	8	0	0.000000	0.000000	0.000000	19.267389	0.000000	1.000000	0.052607
0.750000	0.750000	0.000000	8	8	0	0.000000	0.000000	0.000000	19.267389	0.000000	1.000000	0.053544
0.850000	0.750000	0.000000	9	8	0	0.000000	0.000000	0.000000	19.267389	0.000000	1.000000	0.056093
0.950000	0.750000	0.000000	10	8	0	0.000000	0.000000	0.000000	19.267389	0.000000	1.000000	0.057455
1.000000	0.750000	0.000000	11	8	0	0.000000	0.000000	0.000000	19.267389	0.000000	1.000000	0.000000
0.000000	0.850000	0.000000	0	9	0	0.000000	0.000000	0.000000	19.267389	0.000000	1.000000	0.000000
0.050000	0.850000	0.000000	1	9	0	0.000000	0.000000	0.000000	19.267389	0.000000	1.000000	0.052227
0.150000	0.850000	0.000000	2	9	0	0.000000	0.000000	0.000000	19.267389	0.000000	1.000000	0.052630
0.250000	0.850000	0.000000	3	9	0	0.000000	0.000000	0.000000	19.267389	0.000000	1.000000	0.053326
0.350000	0.850000	0.000000	4	9	0	0.000000	0.000000	0.000000	19.267389	0.000000	1.000000	0.053587
0.450000	0.850000	0.000000	5	9	0	0.000000	0.000000	0.000000	19.267389	0.000000	1.000000	0.052959
0.550000	0.850000	0.000000	6	9	0	0.000000	0.000000	0.000000	19.267389	0.000000	1.000000	0.052432
0.650000	0.850000	0.000000	7	9	0	0.000000	0.000000	0.000000	19.267389	0.000000	1.000000	0.052573
0.750000	0.850000	0.000000	8	9	0	0.000000	0.000000	0.000000	19.267389	0.000000	1.000000	0.053731
0.850000	0.850000	0.000000	9	9	0	0.000000	0.000000	0.000000	19.267389	0.000000	1.000000	0.056316
0.950000	0.850000	0.000000	10	9	0	0.000000	0.000000	0.000000	19.267389	0.000000	1.000000	0.057259
1.000000	0.850000	0.000000	11	9	0	0.000000	0.000000	0.000000	19.267389	0.000000	1.000000	0.000000
0.000000	0.950000	0.000000	0	10	0	0.000000	0.000000	0.000000	19.267389	0.000000	1.000000	0.000000
0.050000	0.950000	0.000000	1	10	0	0.000000	0.000000	0.000000	19.267389	0.000000	1.000000	0.052859
0.150000	0.950000	0.000000	2	10	0	0.000000	0.000000	0.000000	19.267389	0.000000	1.000000	0.053192
0.250000	0.950000	0.000000	3	10	0	0.000000	0.000000	0.000000	19.267389	0.000000	1.000000	0.053441
0.350000	0.950000	0.000000	4	10	0	0.000000	0.000000	0.000000	19.267389	0.000000	1.000000	0.053206
0.450000	0.950000	0.000000	5	10	0	0.000000	0.000000	0.000000	19.267389	0.000000	1.000000	0.052600
0.550000	0.950000	0.000000	6	10	0	0.000000	0.000000	0.000000	19.267389	0.000000	1.000000	0.052167
0.650000	0.950000	0.000000	7	10	0	0.000000	0.000000	0.000000	19.267389	0.000000	1.000000	0.052370
0.750000	0.950000	0.000000	8	10	0	0.000000	0.000000	0.000000	19.267389	0.000000	1.000000	0.053458
0.850000	0.950000	0.000000	9	10	0	0.000000	0.000000	0.000000	19.267389	0.000000	1.000000	0.055728
0.950000	0.950000	0.000000	10	10	0	0.000000	0.000000	0.000000	19.267389	0.000000	1.000000	0.055909
1.000000	0.950000	0.000000	11	10	0	0.000000	0.000000	0.000000	19.267389	0.000000	1.000000	0.000000
0.000000	1.000000	0.000000	0	11	0	0.000000	0.000000	0.000000	19.263931	0.000000	1.000000	0.000000
0.050000	1.000000	0.000000	1	11	0	0.000000	0.000000	0.000000	19.262201	0.000000	1.000000	0.000000
0.150000	1.000000	0.000000	2	11	0	0.000000	0.000000	0.000000	19.262201	0.000000	1.000000	0.000000
0.250000	1.000000	0.000000	3	11	0	0.000000	0.000000	0.000000	19.262201	0.000000	1.000000	0.000000
0.350000	1.000000	0.000000	4	11	0	0.000000	0.000000	0.000000	19.262201	0.000000	1.000000	0.000000
0.450000	1.000000	0.000000	5	11	0	0.000000	0.000000	0.000000	19.262201	0.000000	1.000000	0.000000
0.550000	1.000000	0.000000	6	11	0	0.000000	0.000000	0.000000	19.262201	0.000000	1.000000	0.000000
0.650000	1.000000	0.000000	7	11	0	0.000000	0.000000	0.000000	19.262201	0.000000	1.000000	0.000000
0.750000	1.000000	0.000000	8	11	0	0.000000	0.000000	0.000000	19.262201	0.000000	1.000000	0.000000
0.850000	1.000000	0.000000	9	11	0	0.000000	0.000000	0.000000	19.262201	0.000000	1.000000	0.000000
0.950000	1.000000	0.000000	10	11	0	0.000000	0.000000	0.000000	19.262201	0.000000	1.000000	0.000000
1.000000	1.000000	0.000000	11	11	0	0.000000	0.000000	0.000000	19.263931	0.000000	1.000000	0.000000
0.000000	0.000000	0.050000	0	0	1	0.000000	0.000000	0.000000	19.262201	0.000000	1.000000	0.000000
0.050000	0.000000	0.050000	1	0	1	0.000000	0.000000	0.000000	19.262201	0.000000	1.000000	0.054764
0.150000	0.000000	0.050000	2	0	1	0.000000	0.000000	0.000000	19.262201	0.000000	1.000000	0.054910
0.250000	0.000000	0.050000	3	0	1	0.000000	0.000000	0.000000	19.262201	0.000000	1.000000	0.053134
0.350000	0.000000	0.050000	4	0	1	0.000000	0.000000	0.000000	19.262201	0.000000	1.000000	0.052279
0.450000	0.000000	0.050000	5	0	1	0.000000	0.000000	0.000000	19.262201	0.000000	1.000000	0.052111
0.550000	0.000000	0.050000	6	0	1	0.000000	0.000000	0.000000	19.262201	0.000000	1.000000	0.052199
0.650000	0.000000	0.050000	7	0	1	0.000000	0.000000	0.000000	19.262201	0.000000	1.000000	0.052501
0.750000	0.000000	0.050000	8	0	1	0.000000	0.000000	0.000000	19.262201	0.000000	1.000000	0.052955
0.850000	0.000000	0.050000	9	0	1	0.000000	0.000000	0.000000	19.262201	0.000000	1.000000	0.053277
0.950000	0.000000	0.050000	10	0	1	0.000000	0.000000	0.000000	19.262201	0.000000	1.000000	0.053438
1.000000	0.000000	0.050000	11	0	1	0.000000	0.000000	0.000000	19.262201	0.000000	1.000000	0.000000
0.000000	0.050000	0.050000	0	1	1	0.000000	0.000000	0.000000	19.265711	0.000000	1.000000	0.054764
0.050000	0.050000	0.050000	1	1	1	0.022628	-0.025730	0.003100	16.733173	0.000000	-1.000000	0.054764
0.150000	0.050000	0.050000	2	1	1	0.058559	-0.023315	0.010010	16.723452	0.000000	-1.000000	0.054910
0.250000	0.050000	0.050000	3	1	1	0.077047	-0.020061	0.014874	16.725903	0.000000	-1.000000	0.053134
0.350000	0.050000	0.050000	4	1	1	0.082444	-0.016840	0.016629	16.737347	0.000000	-1.000000	0.052279
0.450000	0.050000	0.050000	5	1	1	0.080934	-0.014291	0.016014	16.755030	0.000000	-1.000000	0.052111
0.550000	0.050000	0.050000	6	1	1	0.075756	-0.012093	0.015551	16.778278	0.000000	-1.000000	0.052199
0.650000	0.050000	0.050000	7	1	1	0.067118	-0.010709	0.015893	16.807377	0.000000	-1.000000	0.052501
0.750000	0.050000	0.050000	8	1	1	0.056556	-0.010985	0.016367	16.842443	0.000000	-1.000000	0.052955
0.850000	0.050000	0.050000	9	1	1	0.045453	-0.011323	0.017046	16.887775	0.000000	-1.000000	0.053277
0.950000	0.050000	0.050000	10	1	1	0.019865	-0.003083	0.022948	17.053717	0.000000	-1.000000	0.053438
1.000000	0.050000	0.050000	11	1	1	0.000000	0.000000	0.000000	19.265680	0.000000	1.000000	0.053438
0.000000	0.150000	0.050000	0	2	1	0.000000	0.000000	0.000000	19.265711	0.000000	1.000000	0.056666
0.050000	0.150000	0.050000	1	2	1	0.027390	-0.037084	-0.041770	16.573675	0.000000	-1.000000	0.056666
0.150000	0.150000	0.050000	2	2	1	0.067736	-0.032487	-0.027104	16.582235	0.000000	-1.000000	0.056056
0.250000	0.150000	0.050000	3	2	1	0.084582	-0.027261	-0.016753	16.608437	0.000000	-1.000000	0.053577
0.350000	0.150000	0.050000	4	2	1	0.087741	-0.023239	-0.009710	16.633106	0.000000	-1.000000	0.052459
0.450000	0.150000	0.050000	5	2	1	0.085003	-0.020324	-0.006250	16.652798	0.000000	-1.000000	0.052192
0.550000	0.150000	0.050000	6	2	1	0.080694	-0.018549	-0.003329	16.668161	0.000000	-1.000000	0.052190
0.650000	0.150000	0.050000	7	2	1	0.072949	-0.019098	0.003122	16.679779	0.000000	-1.000000	0.052481
0.750000	0.150000	0.050000	8	2	1	0.057082	-0.023264	0.011721	16.708405	0.000000	-1.000000	0.052980
0.850000	0.150000	0.050000	9	2	1	0.034849	-0.025553	0.014717	16.761040	0.000000	-1.000000	0.053156
0.950000	0.150000	0.050000	10	2	1	0.011521	-0.011173	0.016527	16.904053	0.000000	-1.000000	0.052998
1.000000	0.150000	0.050000	11	2	1	0.000000	0.000000	0.000000	19.265680	0.000000	1.000000	0.052998
0.000000	0.250000	0.050000	0	3	1	0.000000	0.000000	0.000000	19.265711	0.000000	1.000000	0.057380
0.050000	0.250000	0.050000	1	3	1	0.030129	-0.008443	-0.044398	16.523254	0.000000	-1.000000	0.057380
0.150000	0.250000	0.050000	2	3	1	0.072169	-0.004686	-0.025573	16.539631	0.000000	-1.000000	0.056309
0.250000	0.250000	0.050000	3	3	1	0.086940	-0.003259	-0.014004	16.575306	0.000000	-1.000000	0.053654
0.350000	0.250000	0.050000	4	3	1	0.088820	-0.003895	-0.007923	16.604717	0.000000	-1.000000	0.052575
0.450000	0.250000	0.050000	5	3	1	0.085965	-0.005086	-0.005105	16.627371	0.000000	-1.000000	0.052301
0.550000	0.250000	0.050000	6	3	1	0.080580	-0.008505	-0.000895	16.640648	0.000000	-1.000000	0.052348
0.650000	0.250000	0.050000	7	3	1	0.067181	-0.016415	0.009529	16.657185	0.000000	-1.000000	0.052767
0.750000	0.250000	0.050000	8	3	1	0.036675	-0.025036	0.021098	16.708048	0.000000	-1.000000	0.053271
0.850000	0.250000	0.050000	9	3	1	0.008401	-0.035331	0.014527	16.737434	0.000000	-1.000000	0.052851
0.950000	0.250000	0.050000	10	3	1	0.000373	-0.026239	0.010433	16.836317	0.000000	-1.000000	0.052398
1.000000	0.250000	0.050000	11	3	1	0.000000	0.000000	0.000000	19.265680	0.000000	1.000000	0.052398
0.000000	0.350000	0.050000	0	4	1	0.000000	0.000000	0.000000	19.265711	0.000000	1.000000	0.056405
0.050000	0.350000	0.050000	1	4	1	0.028552	0.018013	-0.040747	16.516523	0.000000	-1.000000	0.056405
0.150000	0.350000	0.050000	2	4	1	0.067139	0.019770	-0.020840	16.534418	0.000000	-1.000000	0.055358
0.250000	0.350000	0.050000	3	4	1	0.079443	0.016431	-0.010822	16.567999	0.000000	-1.000000	0.053247
0.350000	0.350000	0.050000	4	4	1	0.081059	0.011830	-0.006172	16.594482	0.000000	-1.000000	0.052514
0.450000	0.350000	0.050000	5	4	1	0.078955	0.006654	-0.003307	16.613541	0.000000	-1.000000	0.052400
0.550000	0.350000	0.050000	6	4	1	0.071031	-0.001305	0.003680	16.625422	0.000000	-1.000000	0.052696
0.650000	0.350000	0.050000	7	4	1	0.042239	-0.015339	0.021608	16.670555	0.000000	-1.000000	0.053373
0.750000	0.350000	0.050000	8	4	1	0.003949	-0.031927	0.022385	16.700462	0.000000	-1.000000	0.053155
0.850000	0.350000	0.050000	9	4	1	-0.012050	-0.048286	0.006118	16.693535	0.000000	-1.000000	0.052356
0.950000	0.350000	0.050000	10	4	1	-0.006040	-0.043381	0.001044	16.748199	0.000000	-1.000000	0.051868
1.000000	0.350000	0.050000	11	4	1	0.000000	0.000000	0.000000	19.265680	0.000000	1.000000	0.051868
0.000000	0.450000	0.050000	0	5	1	0.000000	0.000000	0.000000	19.265711	0.000000	1.000000	0.054397
0.050000	0.450000	0.050000	1	5	1	0.023355	0.036652	-0.029810	16.563892	0.000000	-1.000000	0.054397
0.150000	0.450000	0.050000	2	5	1	0.055196	0.036681	-0.014606	16.565678	0.000000	-1.000000	0.053962
0.250000	0.450000	0.050000	3	5	1	0.066281	0.030519	-0.008144	16.584291	0.000000	-1.000000	0.052797
0.350000	0.450000	0.050000	4	5	1	0.069050	0.022858	-0.004377	16.601255	0.000000	-1.000000	0.052498
0.450000	0.450000	0.050000	5	5	1	0.066653	0.013290	0.000690	16.610403	0.000000	-1.000000	0.052676
0.550000	0.450000	0.050000	6	5	1	0.051664	-0.000904	0.014815	16.631227	0.000000	-1.000000	0.053189
0.650000	0.450000	0.050000	7	5	1	0.007176	-0.016249	0.033694	16.719593	0.000000	-1.000000	0.053653
0.750000	0.450000	0.050000	8	5	1	-0.028943	-0.042091	0.007806	16.646614	0.000000	-1.000000	0.052717
0.850000	0.450000	0.050000	9	5	1	-0.027774	-0.056359	-0.003231	16.644041	0.000000	-1.000000	0.052250
0.950000	0.450000	0.050000	10	5	1	-0.011276	-0.055006	-0.006730	16.681299	0.000000	-1.000000	0.051739
1.000000	0.450000	0.050000	11	5	1	0.000000	0.000000	0.000000	19.265680	0.000000	1.000000	0.051739
0.000000	0.550000	0.050000	0	6	1	0.000000	0.000000	0.000000	19.265711	0.000000	1.000000	0.052717
0.050000	0.550000	0.050000	1	6	1	0.016616	0.044710	-0.018234	16.634180	0.000000	-1.000000	0.052717
0.150000	0.550000	0.050000	2	6	1	0.040818	0.045284	-0.010087	16.611767	0.000000	-1.000000	0.052892
0.250000	0.550000	0.050000	3	6	1	0.051190	0.039016	-0.005753	16.610373	0.000000	-1.000000	0.052513
0.350000	0.550000	0.050000	4	6	1	0.053173	0.028128	-0.000267	16.609617	0.000000	-1.000000	0.052693
0.450000	0.550000	0.050000	5	6	1	0.049563	0.007144	0.010829	16.621326	0.000000	-1.000000	0.053223
0.550000	0.550000	0.050000	6	6	1	0.001581	-0.004202	0.046082	16.803698	0.000000	-1.000000	0.053619
0.650000	0.550000	0.050000	7	6	1	-0.048998	-0.022110	0.009641	16.635517	0.000000	-1.000000	0.052999
0.750000	0.550000	0.050000	8	6	1	-0.053277	-0.042969	-0.003992	16.608191	0.000000	-1.000000	0.052563
0.850000	0.550000	0.050000	9	6	1	-0.043903	-0.055293	-0.011303	16.591671	0.000000	-1.000000	0.052945
0.950000	0.550000	0.050000	10	6	1	-0.017826	-0.059441	-0.017931	16.592894	0.000000	-1.000000	0.052607
1.000000	0.550000	0.050000	11	6	1	0.000000	0.000000	0.000000	19.265680	0.000000	1.000000	0.052607
0.000000	0.650000	0.050000	0	7	1	0.000000	0.000000	0.000000	19.265711	0.000000	1.000000	0.051911
0.050000	0.650000	0.050000	1	7	1	0.010935	0.044877	-0.009503	16.697773	0.000000	-1.000000	0.051911
0.150000	0.650000	0.050000	2	7	1	0.028254	0.047598	-0.006219	16.653137	0.000000	-1.000000	0.052327
0.250000	0.650000	0.050000	3	7	1	0.035375	0.041637	-0.000410	16.628696	0.000000	-1.000000	0.052488
0.350000	0.650000	0.050000	4	7	1	0.030022	0.021428	0.013852	16.629385	0.000000	-1.000000	0.053157
0.450000	0.650000	0.050000	5	7	1	-0.013769	0.002261	0.034557	16.741091	0.000000	-1.000000	0.053810
0.550000	0.650000	0.050000	6	7	1	-0.059888	-0.006843	0.010156	16.642181	0.000000	-1.000000	0.053091
0.650000	0.650000	0.050000	7	7	1	-0.071481	-0.021676	-0.001496	16.611071	0.000000	-1.000000	0.052616
0.750000	0.650000	0.050000	8	7	1	-0.072923	-0.031482	-0.010341	16.583599	0.000000	-1.000000	0.053000
0.850000	0.650000	0.050000	9	7	1	-0.061841	-0.039862	-0.021725	16.540430	0.000000	-1.000000	0.054732
0.950000	0.650000	0.050000	10	7	1	-0.026244	-0.043640	-0.041934	16.511286	0.000000	-1.000000	0.055611
1.000000	0.650000	0.050000	11	7	1	0.000000	0.000000	0.000000	19.265680	0.000000	1.000000	0.055611
0.000000	0.750000	0.050000	0	8	1	0.000000	0.000000	0.000000	19.265711	0.000000	1.000000	0.051811
0.050000	0.750000	0.050000	1	8	1	0.006709	0.040756	-0.004040	16.741613	0.000000	-1.000000	0.051811
0.150000	0.750000	0.050000	2	8	1	0.017091	0.045035	-0.001303	16.678789	0.000000	-1.000000	0.052255
0.250000	0.750000	0.050000	3	8	1	0.016417	0.037427	0.008211	16.648056	0.000000	-1.000000	0.052819
0.350000	0.750000	0.050000	4	8	1	-0.016223	0.014531	0.027415	16.705816	0.000000	-1.000000	0.053743
0.450000	0.750000	0.050000	5	8	1	-0.057249	0.006757	0.011378	16.672884	0.000000	-1.000000	0.053346
0.550000	0.750000	0.050000	6	8	1	-0.075859	-0.003010	0.000305	16.636837	0.000000	-1.000000	0.052697
0.650000	0.750000	0.050000	7	8	1	-0.083800	-0.008659	-0.006278	16.612988	0.000000	-1.000000	0.052607
0.750000	0.750000	0.050000	8	8	1	-0.083859	-0.011602	-0.013270	16.576578	0.000000	-1.000000	0.053544
0.850000	0.750000	0.050000	9	8	1	-0.071201	-0.012584	-0.025551	16.529852	0.000000	-1.000000	0.056093
0.950000	0.750000	0.050000	10	8	1	-0.030274	-0.010565	-0.047655	16.502535	0.000000	-1.000000	0.057455
1.000000	0.750000	0.050000	11	8	1	0.000000	0.000000	0.000000	19.265680	0.000000	1.000000	0.057455
0.000000	0.850000	0.050000	0	9	1	0.000000	0.000000	0.000000	19.265711	0.000000	1.000000	0.052227
0.050000	0.850000	0.050000	1	9	1	0.002757	0.030385	0.004922	16.776701	0.000000	-1.000000	0.052227
0.150000	0.850000	0.050000	2	9	1	0.005244	0.036154	0.006751	16.696955	0.000000	-1.000000	0.052630
0.250000	0.850000	0.050000	3	9	1	-0.008300	0.029598	0.017220	16.680019	0.000000	-1.000000	0.053326
0.350000	0.850000	0.050000	4	9	1	-0.040792	0.019063	0.015548	16.722073	0.000000	-1.000000	0.053587
0.450000	0.850000	0.050000	5	9	1	-0.068256	0.013648	0.002706	16.682501	0.000000	-1.000000	0.052959
0.550000	0.850000	0.050000	6	9	1	-0.081249	0.010335	-0.003029	16.659962	0.000000	-1.000000	0.052432
0.650000	0.850000	0.050000	7	9	1	-0.087327	0.009451	-0.008431	16.636662	0.000000	-1.000000	0.052573
0.750000	0.850000	0.050000	8	9	1	-0.085287	0.010754	-0.014460	16.606560	0.000000	-1.000000	0.053731
0.850000	0.850000	0.050000	9	9	1	-0.069843	0.014355	-0.024108	16.575138	0.000000	-1.000000	0.056316
0.950000	0.850000	0.050000	10	9	1	-0.028885	0.019241	-0.041307	16.561922	0.000000	-1.000000	0.057259
1.000000	0.850000	0.050000	11	9	1	0.000000	0.000000	0.000000	19.265680	0.000000	1.000000	0.057259
0.000000	0.950000	0.050000	0	10	1	0.000000	0.000000	0.000000	19.265711	0.000000	1.000000	0.052859
0.050000	0.950000	0.050000	1	10	1	-0.010966	0.011347	0.022301	16.915268	0.000000	-1.000000	0.052859
0.150000	0.950000	0.050000	2	10	1	-0.029249	0.014829	0.022133	16.850477	0.000000	-1.000000	0.053192
0.250000	0.950000	0.050000	3	10	1	-0.046000	0.012820	0.022244	16.865383	0.000000	-1.000000	0.053441
0.350000	0.950000	0.050000	4	10	1	-0.063127	0.011363	0.019050	16.848026	0.000000	-1.000000	0.053206
0.450000	0.950000	0.050000	5	10	1	-0.077884	0.009592	0.016654	16.824875	0.000000	-1.000000	0.052600
0.550000	0.950000	0.050000	6	10	1	-0.089228	0.009055	0.013335	16.805206	0.000000	-1.000000	0.052167
0.650000	0.950000	0.050000	7	10	1	-0.093518	0.009607	0.009618	16.788206	0.000000	-1.000000	0.052370
0.750000	0.950000	0.050000	8	10	1	-0.088430	0.010922	0.005826	16.774822	0.000000	-1.000000	0.053458
0.850000	0.950000	0.050000	9	10	1	-0.070082	0.013196	-0.000053	16.766094	0.000000	-1.000000	0.055728
0.950000	0.950000	0.050000	10	10	1	-0.028416	0.015832	-0.012583	16.763718	0.000000	-1.000000	0.055909
1.000000	0.950000	0.050000	11	10	1	0.000000	0.000000	0.000000	19.265680	0.000000	1.000000	0.055909
0.000000	1.000000	0.050000	0	11	1	0.000000	0.000000	0.000000	19.262201	0.000000	1.000000	0.000000
0.050000	1.000000	0.050000	1	11	1	0.000000	0.000000	0.000000	19.262201	0.000000	1.000000	0.052859
0.150000	1.000000	0.050000	2	11	1	0.000000	0.000000	0.000000	19.262201	0.000000	1.000000	0.053192
0.250000	1.000000	0.050000	3	11	1	0.000000	0.000000	0.000000	19.262201	0.000000	1.000000	0.053441
0.350000	1.000000	0.050000	4	11	1	0.000000	0.000000	0.000000	19.262201	0.000000	1.000000	0.053206
0.450000	1.000000	0.050000	5	11	1	0.000000	0.000000	0.000000	19.262201	0.000000	1.000000	0.052600
0.550000	1.000000	0.050000	6	11	1	0.000000	0.000000	0.000000	19.262201	0.000000	1.000000	0.052167
0.650000	1.000000	0.050000	7	11	1	0.000000	0.000000	0.000000	19.262201	0.000000	1.000000	0.052370
0.750000	1.000000	0.050000	8	11	1	0.000000	0.000000	0.000000	19.262201	0.000000	1.000000	0.053458
0.850000	1.000000	0.050000	9	11	1	0.000000	0.000000	0.000000	19.262201	0.000000	1.000000	0.055728
0.950000	1.000000	0.050000	10	11	1	0.000000	0.000000	0.000000	19.262201	0.000000	1.000000	0.055909
1.000000	1.000000	0.050000	11	11	1	0.000000	0.000000	0.000000	19.262201	0.000000	1.000000	0.000000
0.000000	0.000000	0.150000	0	0	2	0.000000	0.000000	0.000000	19.262201	0.000000	1.000000	0.000000
0.050000	0.000000	0.150000	1	0	2	0.000000	0.000000	0.000000	19.262201	0.000000	1.000000	0.042320
0.150000	0.000000	0.150000	2	0	2	0.000000	0.000000	0.000000	19.262201	0.000000	1.000000	0.042056
0.250000	0.000000	0.150000	3	0	2	0.000000	0.000000	0.000000	19.262201	0.000000	1.000000	0.040673
0.350000	0.000000	0.150000	4	0	2	0.000000	0.000000	0.000000	19.262201	0.000000	1.000000	0.040284
0.450000	0.000000	0.150000	5	0	2	0.000000	0.000000	0.000000	19.262201	0.000000	1.000000	0.040468
0.550000	0.000000	0.150000	6	0	2	0.000000	0.000000	0.000000	19.262201	0.000000	1.000000	0.040708
0.650000	0.000000	0.150000	7	0	2	0.000000	0.000000	0.000000	19.262201	0.000000	1.000000	0.041115
0.750000	0.000000	0.150000	8	0	2	0.000000	0.000000	0.000000	19.262201	0.000000	1.000000	0.041748
0.850000	0.000000	0.150000	9	0	2	0.000000	0.000000	0.000000	19.262201	0.000000	1.000000	0.042291
0.950000	0.000000	0.150000	10	0	2	0.000000	0.000000	0.000000	19.262201	0.000000	1.000000	0.042904
1.000000	0.000000	0.150000	11	0	2	0.000000	0.000000	0.000000	19.262201	0.000000	1.000000	0.000000
0.000000	0.050000	0.150000	0	1	2	0.000000	0.000000	0.000000	19.265711	0.000000	1.000000	0.042320
0.050000	0.050000	0.150000	1	1	2	0.021496	-0.001016	-0.014279	16.978342	0.000000	-1.000000	0.042320
0.150000	0.050000	0.150000	2	1	2	0.053009	0.004376	0.005625	16.997520	0.000000	-1.000000	0.042056