TITLE = "dt=1.000000s, t=7260.000000s, nu=0.000016, Lx=1.000000, Ly=1.000000, Lz=1.000000, Nx=12, Ny=12, Nz=12 "
VARIABLES =X, Y, Z, I, J, K, U, V, W, T, Xi, FlagP, P 
ZONE F=POINT, I=12, J=12, K=12
0.000000	0.000000	0.000000	0	0	0	0.000000	0.000000	0.000000	19.263877	0.000000	1.000000	0.000000
0.050000	0.000000	0.000000	1	0	0	0.000000	0.000000	0.000000	19.261972	0.000000	1.000000	0.000000
0.150000	0.000000	0.000000	2	0	0	0.000000	0.000000	0.000000	19.261972	0.000000	1.000000	0.000000
0.250000	0.000000	0.000000	3	0	0	0.000000	0.000000	0.000000	19.261972	0.000000	1.000000	0.000000
0.350000	0.000000	0.000000	4	0	0	0.000000	0.000000	0.000000	19.261972	0.000000	1.000000	0.000000
0.450000	0.000000	0.000000	5	0	0	0.000000	0.000000	0.000000	19.261972	0.000000	1.000000	0.000000
0.550000	0.000000	0.000000	6	0	0	0.000000	0.000000	0.000000	19.261972	0.000000	1.000000	0.000000
0.650000	0.000000	0.000000	7	0	0	0.000000	0.000000	0.000000	19.261972	0.000000	1.000000	0.000000
0.750000	0.000000	0.000000	8	0	0	0.000000	0.000000	0.000000	19.261972	0.000000	1.000000	0.000000
0.850000	0.000000	0.000000	9	0	0	0.000000	0.000000	0.000000	19.261972	0.000000	1.000000	0.000000
0.950000	0.000000	0.000000	10	0	0	0.000000	0.000000	0.000000	19.261972	0.000000	1.000000	0.000000
1.000000	0.000000	0.000000	11	0	0	0.000000	0.000000	0.000000	19.263877	0.000000	1.000000	0.000000
0.000000	0.050000	0.000000	0	1	0	0.000000	0.000000	0.000000	19.267687	0.000000	1.000000	0.000000
0.050000	0.050000	0.000000	1	1	0	0.000000	0.000000	0.000000	19.267687	0.000000	1.000000	0.052660
0.150000	0.050000	0.000000	2	1	0	0.000000	0.000000	0.000000	19.267687	0.000000	1.000000	0.052573
0.250000	0.050000	0.000000	3	1	0	0.000000	0.000000	0.000000	19.267687	0.000000	1.000000	0.052323
0.350000	0.050000	0.000000	4	1	0	0.000000	0.000000	0.000000	19.267687	0.000000	1.000000	0.052082
0.450000	0.050000	0.000000	5	1	0	0.000000	0.000000	0.000000	19.267687	0.000000	1.000000	0.052039
0.550000	0.050000	0.000000	6	1	0	0.000000	0.000000	0.000000	19.267687	0.000000	1.000000	0.052186
0.650000	0.050000	0.000000	7	1	0	0.000000	0.000000	0.000000	19.267687	0.000000	1.000000	0.052469
0.750000	0.050000	0.000000	8	1	0	0.000000	0.000000	0.000000	19.267687	0.000000	1.000000	0.052807
0.850000	0.050000	0.000000	9	1	0	0.000000	0.000000	0.000000	19.267687	0.000000	1.000000	0.053107
0.950000	0.050000	0.000000	10	1	0	0.000000	0.000000	0.000000	19.267687	0.000000	1.000000	0.053029
1.000000	0.050000	0.000000	11	1	0	0.000000	0.000000	0.000000	19.267687	0.000000	1.000000	0.000000
0.000000	0.150000	0.000000	0	2	0	0.000000	0.000000	0.000000	19.267687	0.000000	1.000000	0.000000
0.050000	0.150000	0.000000	1	2	0	0.000000	0.000000	0.000000	19.267687	0.000000	1.000000	0.052237
0.150000	0.150000	0.000000	2	2	0	0.000000	0.000000	0.000000	19.267687	0.000000	1.000000	0.052437
0.250000	0.150000	0.000000	3	2	0	0.000000	0.000000	0.000000	19.267687	0.000000	1.000000	0.052385
0.350000	0.150000	0.000000	4	2	0	0.000000	0.000000	0.000000	19.267687	0.000000	1.000000	0.052184
0.450000	0.150000	0.000000	5	2	0	0.000000	0.000000	0.000000	19.267687	0.000000	1.000000	0.052174
0.550000	0.150000	0.000000	6	2	0	0.000000	0.000000	0.000000	19.267687	0.000000	1.000000	0.052382
0.650000	0.150000	0.000000	7	2	0	0.000000	0.000000	0.000000	19.267687	0.000000	1.000000	0.052777
0.750000	0.150000	0.000000	8	2	0	0.000000	0.000000	0.000000	19.267687	0.000000	1.000000	0.053317
0.850000	0.150000	0.000000	9	2	0	0.000000	0.000000	0.000000	19.267687	0.000000	1.000000	0.054040
0.950000	0.150000	0.000000	10	2	0	0.000000	0.000000	0.000000	19.267687	0.000000	1.000000	0.054414
1.000000	0.150000	0.000000	11	2	0	0.000000	0.000000	0.000000	19.267687	0.000000	1.000000	0.000000
0.000000	0.250000	0.000000	0	3	0	0.000000	0.000000	0.000000	19.267687	0.000000	1.000000	0.000000
0.050000	0.250000	0.000000	1	3	0	0.000000	0.000000	0.000000	19.267687	0.000000	1.000000	0.051672
0.150000	0.250000	0.000000	2	3	0	0.000000	0.000000	0.000000	19.267687	0.000000	1.000000	0.052087
0.250000	0.250000	0.000000	3	3	0	0.000000	0.000000	0.000000	19.267687	0.000000	1.000000	0.052575
0.350000	0.250000	0.000000	4	3	0	0.000000	0.000000	0.000000	19.267687	0.000000	1.000000	0.052473
0.450000	0.250000	0.000000	5	3	0	0.000000	0.000000	0.000000	19.267687	0.000000	1.000000	0.052330
0.550000	0.250000	0.000000	6	3	0	0.000000	0.000000	0.000000	19.267687	0.000000	1.000000	0.052503
0.650000	0.250000	0.000000	7	3	0	0.000000	0.000000	0.000000	19.267687	0.000000	1.000000	0.053029
0.750000	0.250000	0.000000	8	3	0	0.000000	0.000000	0.000000	19.267687	0.000000	1.000000	0.053875
0.850000	0.250000	0.000000	9	3	0	0.000000	0.000000	0.000000	19.267687	0.000000	1.000000	0.054974
0.950000	0.250000	0.000000	10	3	0	0.000000	0.000000	0.000000	19.267687	0.000000	1.000000	0.055492
1.000000	0.250000	0.000000	11	3	0	0.000000	0.000000	0.000000	19.267687	0.000000	1.000000	0.000000
0.000000	0.350000	0.000000	0	4	0	0.000000	0.000000	0.000000	19.267687	0.000000	1.000000	0.000000
0.050000	0.350000	0.000000	1	4	0	0.000000	0.000000	0.000000	19.267687	0.000000	1.000000	0.051373
0.150000	0.350000	0.000000	2	4	0	0.000000	0.000000	0.000000	19.267687	0.000000	1.000000	0.051744
0.250000	0.350000	0.000000	3	4	0	0.000000	0.000000	0.000000	19.267687	0.000000	1.000000	0.052281
0.350000	0.350000	0.000000	4	4	0	0.000000	0.000000	0.000000	19.267687	0.000000	1.000000	0.052865
0.450000	0.350000	0.000000	5	4	0	0.000000	0.000000	0.000000	19.267687	0.000000	1.000000	0.052583
0.550000	0.350000	0.000000	6	4	0	0.000000	0.000000	0.000000	19.267687	0.000000	1.000000	0.052474
0.650000	0.350000	0.000000	7	4	0	0.000000	0.000000	0.000000	19.267687	0.000000	1.000000	0.052887
0.750000	0.350000	0.000000	8	4	0	0.000000	0.000000	0.000000	19.267687	0.000000	1.000000	0.053757
0.850000	0.350000	0.000000	9	4	0	0.000000	0.000000	0.000000	19.267687	0.000000	1.000000	0.054914
0.950000	0.350000	0.000000	10	4	0	0.000000	0.000000	0.000000	19.267687	0.000000	1.000000	0.055439
1.000000	0.350000	0.000000	11	4	0	0.000000	0.000000	0.000000	19.267687	0.000000	1.000000	0.000000
0.000000	0.450000	0.000000	0	5	0	0.000000	0.000000	0.000000	19.267687	0.000000	1.000000	0.000000
0.050000	0.450000	0.000000	1	5	0	0.000000	0.000000	0.000000	19.267687	0.000000	1.000000	0.051976
0.150000	0.450000	0.000000	2	5	0	0.000000	0.000000	0.000000	19.267687	0.000000	1.000000	0.052135
0.250000	0.450000	0.000000	3	5	0	0.000000	0.000000	0.000000	19.267687	0.000000	1.000000	0.052102
0.350000	0.450000	0.000000	4	5	0	0.000000	0.000000	0.000000	19.267687	0.000000	1.000000	0.052510
0.450000	0.450000	0.000000	5	5	0	0.000000	0.000000	0.000000	19.267687	0.000000	1.000000	0.052868
0.550000	0.450000	0.000000	6	5	0	0.000000	0.000000	0.000000	19.267687	0.000000	1.000000	0.052634
0.650000	0.450000	0.000000	7	5	0	0.000000	0.000000	0.000000	19.267687	0.000000	1.000000	0.052536
0.750000	0.450000	0.000000	8	5	0	0.000000	0.000000	0.000000	19.267687	0.000000	1.000000	0.052825
0.850000	0.450000	0.000000	9	5	0	0.000000	0.000000	0.000000	19.267687	0.000000	1.000000	0.053223
0.950000	0.450000	0.000000	10	5	0	0.000000	0.000000	0.000000	19.267687	0.000000	1.000000	0.053234
1.000000	0.450000	0.000000	11	5	0	0.000000	0.000000	0.000000	19.267687	0.000000	1.000000	0.000000
0.000000	0.550000	0.000000	0	6	0	0.000000	0.000000	0.000000	19.267687	0.000000	1.000000	0.000000
0.050000	0.550000	0.000000	1	6	0	0.000000	0.000000	0.000000	19.267687	0.000000	1.000000	0.053745
0.150000	0.550000	0.000000	2	6	0	0.000000	0.000000	0.000000	19.267687	0.000000	1.000000	0.053534
0.250000	0.550000	0.000000	3	6	0	0.000000	0.000000	0.000000	19.267687	0.000000	1.000000	0.052628
0.350000	0.550000	0.000000	4	6	0	0.000000	0.000000	0.000000	19.267687	0.000000	1.000000	0.052294
0.450000	0.550000	0.000000	5	6	0	0.000000	0.000000	0.000000	19.267687	0.000000	1.000000	0.052502
0.550000	0.550000	0.000000	6	6	0	0.000000	0.000000	0.000000	19.267687	0.000000	1.000000	0.052951
0.650000	0.550000	0.000000	7	6	0	0.000000	0.000000	0.000000	19.267687	0.000000	1.000000	0.052649
0.750000	0.550000	0.000000	8	6	0	0.000000	0.000000	0.000000	19.267687	0.000000	1.000000	0.052361
0.850000	0.550000	0.000000	9	6	0	0.000000	0.000000	0.000000	19.267687	0.000000	1.000000	0.052217
0.950000	0.550000	0.000000	10	6	0	0.000000	0.000000	0.000000	19.267687	0.000000	1.000000	0.052016
1.000000	0.550000	0.000000	11	6	0	0.000000	0.000000	0.000000	19.267687	0.000000	1.000000	0.000000
0.000000	0.650000	0.000000	0	7	0	0.000000	0.000000	0.000000	19.267687	0.000000	1.000000	0.000000
0.050000	0.650000	0.000000	1	7	0	0.000000	0.000000	0.000000	19.267687	0.000000	1.000000	0.056525
0.150000	0.650000	0.000000	2	7	0	0.000000	0.000000	0.000000	19.267687	0.000000	1.000000	0.055376
0.250000	0.650000	0.000000	3	7	0	0.000000	0.000000	0.000000	19.267687	0.000000	1.000000	0.053471
0.350000	0.650000	0.000000	4	7	0	0.000000	0.000000	0.000000	19.267687	0.000000	1.000000	0.052533
0.450000	0.650000	0.000000	5	7	0	0.000000	0.000000	0.000000	19.267687	0.000000	1.000000	0.052268
0.550000	0.650000	0.000000	6	7	0	0.000000	0.000000	0.000000	19.267687	0.000000	1.000000	0.052467
0.650000	0.650000	0.000000	7	7	0	0.000000	0.000000	0.000000	19.267687	0.000000	1.000000	0.052750
0.750000	0.650000	0.000000	8	7	0	0.000000	0.000000	0.000000	19.267687	0.000000	1.000000	0.052516
0.850000	0.650000	0.000000	9	7	0	0.000000	0.000000	0.000000	19.267687	0.000000	1.000000	0.052129
0.950000	0.650000	0.000000	10	7	0	0.000000	0.000000	0.000000	19.267687	0.000000	1.000000	0.051888
1.000000	0.650000	0.000000	11	7	0	0.000000	0.000000	0.000000	19.267687	0.000000	1.000000	0.000000
0.000000	0.750000	0.000000	0	8	0	0.000000	0.000000	0.000000	19.267687	0.000000	1.000000	0.000000
0.050000	0.750000	0.000000	1	8	0	0.000000	0.000000	0.000000	19.267687	0.000000	1.000000	0.056515
0.150000	0.750000	0.000000	2	8	0	0.000000	0.000000	0.000000	19.267687	0.000000	1.000000	0.055492
0.250000	0.750000	0.000000	3	8	0	0.000000	0.000000	0.000000	19.267687	0.000000	1.000000	0.053646
0.350000	0.750000	0.000000	4	8	0	0.000000	0.000000	0.000000	19.267687	0.000000	1.000000	0.052698
0.450000	0.750000	0.000000	5	8	0	0.000000	0.000000	0.000000	19.267687	0.000000	1.000000	0.052308
0.550000	0.750000	0.000000	6	8	0	0.000000	0.000000	0.000000	19.267687	0.000000	1.000000	0.052214
0.650000	0.750000	0.000000	7	8	0	0.000000	0.000000	0.000000	19.267687	0.000000	1.000000	0.052333
0.750000	0.750000	0.000000	8	8	0	0.000000	0.000000	0.000000	19.267687	0.000000	1.000000	0.052506
0.850000	0.750000	0.000000	9	8	0	0.000000	0.000000	0.000000	19.267687	0.000000	1.000000	0.052378
0.950000	0.750000	0.000000	10	8	0	0.000000	0.000000	0.000000	19.267687	0.000000	1.000000	0.052191
1.000000	0.750000	0.000000	11	8	0	0.000000	0.000000	0.000000	19.267687	0.000000	1.000000	0.000000
0.000000	0.850000	0.000000	0	9	0	0.000000	0.000000	0.000000	19.267687	0.000000	1.000000	0.000000
0.050000	0.850000	0.000000	1	9	0	0.000000	0.000000	0.000000	19.267687	0.000000	1.000000	0.055154
0.150000	0.850000	0.000000	2	9	0	0.000000	0.000000	0.000000	19.267687	0.000000	1.000000	0.054553
0.250000	0.850000	0.000000	3	9	0	0.000000	0.000000	0.000000	19.267687	0.000000	1.000000	0.053252
0.350000	0.850000	0.000000	4	9	0	0.000000	0.000000	0.000000	19.267687	0.000000	1.000000	0.052581
0.450000	0.850000	0.000000	5	9	0	0.000000	0.000000	0.000000	19.267687	0.000000	1.000000	0.052258
0.550000	0.850000	0.000000	6	9	0	0.000000	0.000000	0.000000	19.267687	0.000000	1.000000	0.052123
0.650000	0.850000	0.000000	7	9	0	0.000000	0.000000	0.000000	19.267687	0.000000	1.000000	0.052125
0.750000	0.850000	0.000000	8	9	0	0.000000	0.000000	0.000000	19.267687	0.000000	1.000000	0.052289
0.850000	0.850000	0.000000	9	9	0	0.000000	0.000000	0.000000	19.267687	0.000000	1.000000	0.052469
0.950000	0.850000	0.000000	10	9	0	0.000000	0.000000	0.000000	19.267687	0.000000	1.000000	0.052509
1.000000	0.850000	0.000000	11	9	0	0.000000	0.000000	0.000000	19.267687	0.000000	1.000000	0.000000
0.000000	0.950000	0.000000	0	10	0	0.000000	0.000000	0.000000	19.267687	0.000000	1.000000	0.000000
0.050000	0.950000	0.000000	1	10	0	0.000000	0.000000	0.000000	19.267687	0.000000	1.000000	0.053462
0.150000	0.950000	0.000000	2	10	0	0.000000	0.000000	0.000000	19.267687	0.000000	1.000000	0.053580
0.250000	0.950000	0.000000	3	10	0	0.000000	0.000000	0.000000	19.267687	0.000000	1.000000	0.052886
0.350000	0.950000	0.000000	4	10	0	0.000000	0.000000	0.000000	19.267687	0.000000	1.000000	0.052406
0.450000	0.950000	0.000000	5	10	0	0.000000	0.000000	0.000000	19.267687	0.000000	1.000000	0.052128
0.550000	0.950000	0.000000	6	10	0	0.000000	0.000000	0.000000	19.267687	0.000000	1.000000	0.052012
0.650000	0.950000	0.000000	7	10	0	0.000000	0.000000	0.000000	19.267687	0.000000	1.000000	0.052046
0.750000	0.950000	0.000000	8	10	0	0.000000	0.000000	0.000000	19.267687	0.000000	1.000000	0.052238
0.850000	0.950000	0.000000	9	10	0	0.000000	0.000000	0.000000	19.267687	0.000000	1.000000	0.052497
0.950000	0.950000	0.000000	10	10	0	0.000000	0.000000	0.000000	19.267687	0.000000	1.000000	0.052681
1.000000	0.950000	0.000000	11	10	0	0.000000	0.000000	0.000000	19.267687	0.000000	1.000000	0.000000
0.000000	1.000000	0.000000	0	11	0	0.000000	0.000000	0.000000	19.263903	0.000000	1.000000	0.000000
0.050000	1.000000	0.000000	1	11	0	0.000000	0.000000	0.000000	19.262010	0.000000	1.000000	0.000000
0.150000	1.000000	0.000000	2	11	0	0.000000	0.000000	0.000000	19.262010	0.000000	1.000000	0.000000
0.250000	1.000000	0.000000	3	11	0	0.000000	0.000000	0.000000	19.262010	0.000000	1.000000	0.000000
0.350000	1.000000	0.000000	4	11	0	0.000000	0.000000	0.000000	19.262010	0.000000	1.000000	0.000000
0.450000	1.000000	0.000000	5	11	0	0.000000	0.000000	0.000000	19.262010	0.000000	1.000000	0.000000
0.550000	1.000000	0.000000	6	11	0	0.000000	0.000000	0.000000	19.262010	0.000000	1.000000	0.000000
0.650000	1.000000	0.000000	7	11	0	0.000000	0.000000	0.000000	19.262010	0.000000	1.000000	0.000000
0.750000	1.000000	0.000000	8	11	0	0.000000	0.000000	0.000000	19.262010	0.000000	1.000000	0.000000
0.850000	1.000000	0.000000	9	11	0	0.000000	0.000000	0.000000	19.262010	0.000000	1.000000	0.000000
0.950000	1.000000	0.000000	10	11	0	0.000000	0.000000	0.000000	19.262010	0.000000	1.000000	0.000000
1.000000	1.000000	0.000000	11	11	0	0.000000	0.000000	0.000000	19.263903	0.000000	1.000000	0.000000
0.000000	0.000000	0.050000	0	0	1	0.000000	0.000000	0.000000	19.261972	0.000000	1.000000	0.000000
0.050000	0.000000	0.050000	1	0	1	0.000000	0.000000	0.000000	19.261972	0.000000	1.000000	0.052660
0.150000	0.000000	0.050000	2	0	1	0.000000	0.000000	0.000000	19.261972	0.000000	1.000000	0.052573
0.250000	0.000000	0.050000	3	0	1	0.000000	0.000000	0.000000	19.261972	0.000000	1.000000	0.052323
0.350000	0.000000	0.050000	4	0	1	0.000000	0.000000	0.000000	19.261972	0.000000	1.000000	0.052082
0.450000	0.000000	0.050000	5	0	1	0.000000	0.000000	0.000000	19.261972	0.000000	1.000000	0.052039
0.550000	0.000000	0.050000	6	0	1	0.000000	0.000000	0.000000	19.261972	0.000000	1.000000	0.052186
0.650000	0.000000	0.050000	7	0	1	0.000000	0.000000	0.000000	19.261972	0.000000	1.000000	0.052469
0.750000	0.000000	0.050000	8	0	1	0.000000	0.000000	0.000000	19.261972	0.000000	1.000000	0.052807
0.850000	0.000000	0.050000	9	0	1	0.000000	0.000000	0.000000	19.261972	0.000000	1.000000	0.053107
0.950000	0.000000	0.050000	10	0	1	0.000000	0.000000	0.000000	19.261972	0.000000	1.000000	0.053029
1.000000	0.000000	0.050000	11	0	1	0.000000	0.000000	0.000000	19.261972	0.000000	1.000000	0.000000
0.000000	0.050000	0.050000	0	1	1	0.000000	0.000000	0.000000	19.265785	0.000000	1.000000	0.052660
0.050000	0.050000	0.050000	1	1	1	-0.008015	-0.016079	0.024098	17.073240	0.000000	-1.000000	0.052660
0.150000	0.050000	0.050000	2	1	1	-0.020962	-0.012924	0.017862	16.979984	0.000000	-1.000000	0.052573
0.250000	0.050000	0.050000	3	1	1	-0.031331	-0.010044	0.015488	16.956425	0.000000	-1.000000	0.052323
0.350000	0.050000	0.050000	4	1	1	-0.040054	-0.009751	0.013041	16.925827	0.000000	-1.000000	0.052082
0.450000	0.050000	0.050000	5	1	1	-0.044043	-0.010968	0.011677	16.900486	0.000000	-1.000000	0.052039
0.550000	0.050000	0.050000	6	1	1	-0.043437	-0.012929	0.011622	16.879797	0.000000	-1.000000	0.052186
0.650000	0.050000	0.050000	7	1	1	-0.039153	-0.015351	0.012380	16.863369	0.000000	-1.000000	0.052469
0.750000	0.050000	0.050000	8	1	1	-0.031766	-0.018146	0.013736	16.852528	0.000000	-1.000000	0.052807
0.850000	0.050000	0.050000	9	1	1	-0.021193	-0.021319	0.015162	16.851735	0.000000	-1.000000	0.053107
0.950000	0.050000	0.050000	10	1	1	-0.007517	-0.023234	0.015718	16.876562	0.000000	-1.000000	0.053029
1.000000	0.050000	0.050000	11	1	1	0.000000	0.000000	0.000000	19.266019	0.000000	1.000000	0.053029
0.000000	0.150000	0.050000	0	2	1	0.000000	0.000000	0.000000	19.265785	0.000000	1.000000	0.052237
0.050000	0.150000	0.050000	1	2	1	-0.004018	-0.041829	0.013695	16.867894	0.000000	-1.000000	0.052237
0.150000	0.150000	0.050000	2	2	1	-0.013491	-0.034756	0.014372	16.828041	0.000000	-1.000000	0.052437
0.250000	0.150000	0.050000	3	2	1	-0.027929	-0.022505	0.011410	16.845651	0.000000	-1.000000	0.052385
0.350000	0.150000	0.050000	4	2	1	-0.040999	-0.016439	0.001031	16.818754	0.000000	-1.000000	0.052184
0.450000	0.150000	0.050000	5	2	1	-0.046359	-0.015989	-0.004667	16.795186	0.000000	-1.000000	0.052174
0.550000	0.150000	0.050000	6	2	1	-0.047539	-0.018622	-0.007322	16.776075	0.000000	-1.000000	0.052382
0.650000	0.150000	0.050000	7	2	1	-0.045801	-0.022817	-0.009524	16.757814	0.000000	-1.000000	0.052777
0.750000	0.150000	0.050000	8	2	1	-0.041228	-0.027689	-0.011527	16.740929	0.000000	-1.000000	0.053317
0.850000	0.150000	0.050000	9	2	1	-0.032868	-0.032297	-0.015769	16.728235	0.000000	-1.000000	0.054040
0.950000	0.150000	0.050000	10	2	1	-0.013718	-0.033909	-0.026275	16.727969	0.000000	-1.000000	0.054414
1.000000	0.150000	0.050000	11	2	1	0.000000	0.000000	0.000000	19.266019	0.000000	1.000000	0.054414
0.000000	0.250000	0.050000	0	3	1	0.000000	0.000000	0.000000	19.265785	0.000000	1.000000	0.051672
0.050000	0.250000	0.050000	1	3	1	0.002535	-0.058036	0.004009	16.769549	0.000000	-1.000000	0.051672
0.150000	0.250000	0.050000	2	3	1	0.002299	-0.052257	0.011372	16.738292	0.000000	-1.000000	0.052087
0.250000	0.250000	0.050000	3	3	1	-0.013103	-0.031196	0.018912	16.808749	0.000000	-1.000000	0.052575
0.350000	0.250000	0.050000	4	3	1	-0.035489	-0.012028	0.008415	16.817163	0.000000	-1.000000	0.052473
0.450000	0.250000	0.050000	5	3	1	-0.047723	-0.004200	-0.003355	16.784599	0.000000	-1.000000	0.052330
0.550000	0.250000	0.050000	6	3	1	-0.051281	-0.002735	-0.007566	16.763111	0.000000	-1.000000	0.052503
0.650000	0.250000	0.050000	7	3	1	-0.051193	-0.004220	-0.011875	16.742989	0.000000	-1.000000	0.053029
0.750000	0.250000	0.050000	8	3	1	-0.046547	-0.006478	-0.016081	16.724249	0.000000	-1.000000	0.053875
0.850000	0.250000	0.050000	9	3	1	-0.036140	-0.007819	-0.021062	16.709917	0.000000	-1.000000	0.054974
0.950000	0.250000	0.050000	10	3	1	-0.014606	-0.006965	-0.028986	16.709799	0.000000	-1.000000	0.055492
1.000000	0.250000	0.050000	11	3	1	0.000000	0.000000	0.000000	19.266019	0.000000	1.000000	0.055492
0.000000	0.350000	0.050000	0	4	1	0.000000	0.000000	0.000000	19.265785	0.000000	1.000000	0.051373
0.050000	0.350000	0.050000	1	4	1	0.008369	-0.066372	-0.006565	16.717007	0.000000	-1.000000	0.051373
0.150000	0.350000	0.050000	2	4	1	0.018544	-0.063976	0.001329	16.685665	0.000000	-1.000000	0.051744
0.250000	0.350000	0.050000	3	4	1	0.014475	-0.044775	0.013191	16.718599	0.000000	-1.000000	0.052281
0.350000	0.350000	0.050000	4	4	1	-0.011256	-0.014902	0.024083	16.828035	0.000000	-1.000000	0.052865
0.450000	0.350000	0.050000	5	4	1	-0.038414	0.002709	0.006244	16.793945	0.000000	-1.000000	0.052583
0.550000	0.350000	0.050000	6	4	1	-0.047911	0.011811	-0.003691	16.764370	0.000000	-1.000000	0.052474
0.650000	0.350000	0.050000	7	4	1	-0.049779	0.016715	-0.010541	16.738053	0.000000	-1.000000	0.052887
0.750000	0.350000	0.050000	8	4	1	-0.046116	0.020585	-0.017784	16.710373	0.000000	-1.000000	0.053757
0.850000	0.350000	0.050000	9	4	1	-0.035474	0.025189	-0.026170	16.686077	0.000000	-1.000000	0.054914
0.950000	0.350000	0.050000	10	4	1	-0.014084	0.028757	-0.035415	16.677478	0.000000	-1.000000	0.055439
1.000000	0.350000	0.050000	11	4	1	0.000000	0.000000	0.000000	19.266019	0.000000	1.000000	0.055439
0.000000	0.450000	0.050000	0	5	1	0.000000	0.000000	0.000000	19.265785	0.000000	1.000000	0.051976
0.050000	0.450000	0.050000	1	5	1	0.012133	-0.066692	-0.013605	16.665844	0.000000	-1.000000	0.051976
0.150000	0.450000	0.050000	2	5	1	0.030401	-0.064254	-0.008975	16.652632	0.000000	-1.000000	0.052135
0.250000	0.450000	0.050000	3	5	1	0.036750	-0.051058	-0.001229	16.671889	0.000000	-1.000000	0.052102
0.350000	0.450000	0.050000	4	5	1	0.032608	-0.026937	0.012177	16.721584	0.000000	-1.000000	0.052510
0.450000	0.450000	0.050000	5	5	1	0.000723	-0.006306	0.037622	16.888054	0.000000	-1.000000	0.052868
0.550000	0.450000	0.050000	6	5	1	-0.032179	0.015190	0.007894	16.786331	0.000000	-1.000000	0.052634
0.650000	0.450000	0.050000	7	5	1	-0.037872	0.030108	-0.002839	16.755112	0.000000	-1.000000	0.052536
0.750000	0.450000	0.050000	8	5	1	-0.034736	0.041148	-0.009558	16.730291	0.000000	-1.000000	0.052825
0.850000	0.450000	0.050000	9	5	1	-0.024980	0.051313	-0.013542	16.712885	0.000000	-1.000000	0.053223
0.950000	0.450000	0.050000	10	5	1	-0.009342	0.058043	-0.017282	16.718042	0.000000	-1.000000	0.053234
1.000000	0.450000	0.050000	11	5	1	0.000000	0.000000	0.000000	19.266019	0.000000	1.000000	0.053234
0.000000	0.550000	0.050000	0	6	1	0.000000	0.000000	0.000000	19.265785	0.000000	1.000000	0.053745
0.050000	0.550000	0.050000	1	6	1	0.016863	-0.057008	-0.025063	16.596852	0.000000	-1.000000	0.053745
0.150000	0.550000	0.050000	2	6	1	0.041679	-0.051743	-0.017607	16.614959	0.000000	-1.000000	0.053534
0.250000	0.550000	0.050000	3	6	1	0.052087	-0.041611	-0.010871	16.654772	0.000000	-1.000000	0.052628
0.350000	0.550000	0.050000	4	6	1	0.053107	-0.030180	-0.003125	16.692067	0.000000	-1.000000	0.052294
0.450000	0.550000	0.050000	5	6	1	0.044145	-0.016483	0.007629	16.734723	0.000000	-1.000000	0.052502
0.550000	0.550000	0.050000	6	6	1	0.011105	0.005407	0.032795	16.854842	0.000000	-1.000000	0.052951
0.650000	0.550000	0.050000	7	6	1	-0.017427	0.023336	0.012969	16.793568	0.000000	-1.000000	0.052649
0.750000	0.550000	0.050000	8	6	1	-0.019104	0.045151	0.000776	16.763469	0.000000	-1.000000	0.052361
0.850000	0.550000	0.050000	9	6	1	-0.012931	0.057948	-0.004205	16.754860	0.000000	-1.000000	0.052217
0.950000	0.550000	0.050000	10	6	1	-0.004049	0.065025	-0.003075	16.786828	0.000000	-1.000000	0.052016
1.000000	0.550000	0.050000	11	6	1	0.000000	0.000000	0.000000	19.266019	0.000000	1.000000	0.052016
0.000000	0.650000	0.050000	0	7	1	0.000000	0.000000	0.000000	19.265785	0.000000	1.000000	0.056525
0.050000	0.650000	0.050000	1	7	1	0.022516	-0.025272	-0.046041	16.546405	0.000000	-1.000000	0.056525
0.150000	0.650000	0.050000	2	7	1	0.053415	-0.022505	-0.027949	16.588387	0.000000	-1.000000	0.055376
0.250000	0.650000	0.050000	3	7	1	0.063286	-0.018715	-0.015954	16.646684	0.000000	-1.000000	0.053471
0.350000	0.650000	0.050000	4	7	1	0.063223	-0.015565	-0.008484	16.693076	0.000000	-1.000000	0.052533
0.450000	0.650000	0.050000	5	7	1	0.058595	-0.010947	-0.002544	16.726759	0.000000	-1.000000	0.052268
0.550000	0.650000	0.050000	6	7	1	0.049038	-0.001439	0.006065	16.761166	0.000000	-1.000000	0.052467
0.650000	0.650000	0.050000	7	7	1	0.025828	0.011115	0.019020	16.819934	0.000000	-1.000000	0.052750
0.750000	0.650000	0.050000	8	7	1	0.002848	0.034452	0.014852	16.807439	0.000000	-1.000000	0.052516
0.850000	0.650000	0.050000	9	7	1	-0.001487	0.051126	0.004300	16.790556	0.000000	-1.000000	0.052129
0.950000	0.650000	0.050000	10	7	1	0.000214	0.058496	0.005786	16.853285	0.000000	-1.000000	0.051888
1.000000	0.650000	0.050000	11	7	1	0.000000	0.000000	0.000000	19.266019	0.000000	1.000000	0.051888
0.000000	0.750000	0.050000	0	8	1	0.000000	0.000000	0.000000	19.265785	0.000000	1.000000	0.056515
0.050000	0.750000	0.050000	1	8	1	0.023371	0.013340	-0.038447	16.602990	0.000000	-1.000000	0.056515
0.150000	0.750000	0.050000	2	8	1	0.055080	0.011511	-0.022772	16.627088	0.000000	-1.000000	0.055492
0.250000	0.750000	0.050000	3	8	1	0.064903	0.008055	-0.013774	16.669285	0.000000	-1.000000	0.053646
0.350000	0.750000	0.050000	4	8	1	0.064839	0.004660	-0.008621	16.708156	0.000000	-1.000000	0.052698
0.450000	0.750000	0.050000	5	8	1	0.060572	0.002795	-0.005385	16.739544	0.000000	-1.000000	0.052308
0.550000	0.750000	0.050000	6	8	1	0.055044	0.004135	-0.002330	16.766074	0.000000	-1.000000	0.052214
0.650000	0.750000	0.050000	7	8	1	0.045118	0.010156	0.005804	16.799076	0.000000	-1.000000	0.052333
0.750000	0.750000	0.050000	8	8	1	0.026690	0.022173	0.015010	16.835769	0.000000	-1.000000	0.052506
0.850000	0.750000	0.050000	9	8	1	0.011540	0.037222	0.011544	16.830749	0.000000	-1.000000	0.052378
0.950000	0.750000	0.050000	10	8	1	0.003853	0.044355	0.012438	16.911193	0.000000	-1.000000	0.052191
1.000000	0.750000	0.050000	11	8	1	0.000000	0.000000	0.000000	19.266019	0.000000	1.000000	0.052191
0.000000	0.850000	0.050000	0	9	1	0.000000	0.000000	0.000000	19.265785	0.000000	1.000000	0.055154
0.050000	0.850000	0.050000	1	9	1	0.020743	0.041138	-0.033454	16.646196	0.000000	-1.000000	0.055154
0.150000	0.850000	0.050000	2	9	1	0.049179	0.037016	-0.018748	16.660980	0.000000	-1.000000	0.054553
0.250000	0.850000	0.050000	3	9	1	0.058691	0.029665	-0.011125	16.691842	0.000000	-1.000000	0.053252
0.350000	0.850000	0.050000	4	9	1	0.059733	0.023168	-0.007544	16.724090	0.000000	-1.000000	0.052581
0.450000	0.850000	0.050000	5	9	1	0.056989	0.018410	-0.005528	16.752993	0.000000	-1.000000	0.052258
0.550000	0.850000	0.050000	6	9	1	0.052645	0.015573	-0.003902	16.778818	0.000000	-1.000000	0.052123
0.650000	0.850000	0.050000	7	9	1	0.046898	0.015323	-0.000469	16.805392	0.000000	-1.000000	0.052125
0.750000	0.850000	0.050000	8	9	1	0.036566	0.018558	0.006899	16.839159	0.000000	-1.000000	0.052289
0.850000	0.850000	0.050000	9	9	1	0.023165	0.025309	0.010661	16.864528	0.000000	-1.000000	0.052469
0.950000	0.850000	0.050000	10	9	1	0.008362	0.027558	0.016588	16.968060	0.000000	-1.000000	0.052509
1.000000	0.850000	0.050000	11	9	1	0.000000	0.000000	0.000000	19.266019	0.000000	1.000000	0.052509
0.000000	0.950000	0.050000	0	10	1	0.000000	0.000000	0.000000	19.265785	0.000000	1.000000	0.053462
0.050000	0.950000	0.050000	1	10	1	0.014415	0.026927	0.012517	16.801280	0.000000	-1.000000	0.053462
0.150000	0.950000	0.050000	2	10	1	0.037102	0.024039	0.015773	16.792455	0.000000	-1.000000	0.053580
0.250000	0.950000	0.050000	3	10	1	0.049070	0.019490	0.015801	16.804314	0.000000	-1.000000	0.052886
0.350000	0.950000	0.050000	4	10	1	0.053779	0.015748	0.014741	16.825882	0.000000	-1.000000	0.052406
0.450000	0.950000	0.050000	5	10	1	0.054161	0.012957	0.013597	16.852404	0.000000	-1.000000	0.052128
0.550000	0.950000	0.050000	6	10	1	0.051576	0.010930	0.012890	16.881911	0.000000	-1.000000	0.052012
0.650000	0.950000	0.050000	7	10	1	0.046240	0.009585	0.012975	16.913883	0.000000	-1.000000	0.052046
0.750000	0.950000	0.050000	8	10	1	0.038295	0.009314	0.013883	16.947842	0.000000	-1.000000	0.052238
0.850000	0.950000	0.050000	9	10	1	0.029423	0.010548	0.014864	16.979871	0.000000	-1.000000	0.052497
0.950000	0.950000	0.050000	10	10	1	0.012557	0.009669	0.022232	17.106844	0.000000	-1.000000	0.052681
1.000000	0.950000	0.050000	11	10	1	0.000000	0.000000	0.000000	19.266019	0.000000	1.000000	0.052681
0.000000	1.000000	0.050000	0	11	1	0.000000	0.000000	0.000000	19.262010	0.000000	1.000000	0.000000
0.050000	1.000000	0.050000	1	11	1	0.000000	0.000000	0.000000	19.262010	0.000000	1.000000	0.053462
0.150000	1.000000	0.050000	2	11	1	0.000000	0.000000	0.000000	19.262010	0.000000	1.000000	0.053580
0.250000	1.000000	0.050000	3	11	1	0.000000	0.000000	0.000000	19.262010	0.000000	1.000000	0.052886
0.350000	1.000000	0.050000	4	11	1	0.000000	0.000000	0.000000	19.262010	0.000000	1.000000	0.052406
0.450000	1.000000	0.050000	5	11	1	0.000000	0.000000	0.000000	19.262010	0.000000	1.000000	0.052128
0.550000	1.000000	0.050000	6	11	1	0.000000	0.000000	0.000000	19.262010	0.000000	1.000000	0.052012
0.650000	1.000000	0.050000	7	11	1	0.000000	0.000000	0.000000	19.262010	0.000000	1.000000	0.052046
0.750000	1.000000	0.050000	8	11	1	0.000000	0.000000	0.000000	19.262010	0.000000	1.000000	0.052238
0.850000	1.000000	0.050000	9	11	1	0.000000	0.000000	0.000000	19.262010	0.000000	1.000000	0.052497
0.950000	1.000000	0.050000	10	11	1	0.000000	0.000000	0.000000	19.262010	0.000000	1.000000	0.052681
1.000000	1.000000	0.050000	11	11	1	0.000000	0.000000	0.000000	19.262010	0.000000	1.000000	0.000000
0.000000	0.000000	0.150000	0	0	2	0.000000	0.000000	0.000000	19.261972	0.000000	1.000000	0.000000
0.050000	0.000000	0.150000	1	0	2	0.000000	0.000000	0.000000	19.261972	0.000000	1.000000	0.042046
0.150000	0.000000	0.150000	2	0	2	0.000000	0.000000	0.000000	19.261972	0.000000	1.000000	0.041696
0.250000	0.000000	0.150000	3	0	2	0.000000	0.000000	0.000000	19.261972	0.000000	1.000000	0.041325
0.350000	0.000000	0.150000	4	0	2	0.000000	0.000000	0.000000	19.261972	0.000000	1.000000	0.040951
0.450000	0.000000	0.150000	5	0	2	0.000000	0.000000	0.000000	19.261972	0.000000	1.000000	0.040814
0.550000	0.000000	0.150000	6	0	2	0.000000	0.000000	0.000000	19.261972	0.000000	1.000000	0.040829
0.650000	0.000000	0.150000	7	0	2	0.000000	0.000000	0.000000	19.261972	0.000000	1.000000	0.040929
0.750000	0.000000	0.150000	8	0	2	0.000000	0.000000	0.000000	19.261972	0.000000	1.000000	0.041028
0.850000	0.000000	0.150000	9	0	2	0.000000	0.000000	0.000000	19.261972	0.000000	1.000000	0.041040
0.950000	0.000000	0.150000	10	0	2	0.000000	0.000000	0.000000	19.261972	0.000000	1.000000	0.040843
1.000000	0.000000	0.150000	11	0	2	0.000000	0.000000	0.000000	19.261972	0.000000	1.000000	0.000000
0.000000	0.050000	0.150000	0	1	2	0.000000	0.000000	0.000000	19.265785	0.000000	1.000000	0.042046
0.050000	0.050000	0.150000	1	1	2	-0.005413	-0.006178	0.059791	17.089531	0.000000	-1.000000	0.042046
0.150000	0.050000	0.150000	2	1	2	-0.015932	-0.004400	0.045235	16.982130	0.000000	-1.000000	0.041696