TITLE = "dt=1.000000s, t=7260.000000s, nu=0.000016, Lx=1.000000, Ly=1.000000, Lz=1.000000, Nx=12, Ny=12, Nz=12 "
VARIABLES =X, Y, Z, I, J, K, U, V, W, T, Xi, FlagP, P 
ZONE F=POINT, I=12, J=12, K=12
0.000000	0.000000	0.000000	0	0	0	0.000000	0.000000	0.000000	19.263472	0.000000	1.000000	0.000000
0.050000	0.000000	0.000000	1	0	0	0.000000	0.000000	0.000000	19.261738	0.000000	1.000000	0.000000
0.150000	0.000000	0.000000	2	0	0	0.000000	0.000000	0.000000	19.261738	0.000000	1.000000	0.000000
0.250000	0.000000	0.000000	3	0	0	0.000000	0.000000	0.000000	19.261738	0.000000	1.000000	0.000000
0.350000	0.000000	0.000000	4	0	0	0.000000	0.000000	0.000000	19.261738	0.000000	1.000000	0.000000
0.450000	0.000000	0.000000	5	0	0	0.000000	0.000000	0.000000	19.261738	0.000000	1.000000	0.000000
0.550000	0.000000	0.000000	6	0	0	0.000000	0.000000	0.000000	19.261738	0.000000	1.000000	0.000000
0.650000	0.000000	0.000000	7	0	0	0.000000	0.000000	0.000000	19.261738	0.000000	1.000000	0.000000
0.750000	0.000000	0.000000	8	0	0	0.000000	0.000000	0.000000	19.261738	0.000000	1.000000	0.000000
0.850000	0.000000	0.000000	9	0	0	0.000000	0.000000	0.000000	19.261738	0.000000	1.000000	0.000000
0.950000	0.000000	0.000000	10	0	0	0.000000	0.000000	0.000000	19.261738	0.000000	1.000000	0.000000
1.000000	0.000000	0.000000	11	0	0	0.000000	0.000000	0.000000	19.263472	0.000000	1.000000	0.000000
0.000000	0.050000	0.000000	0	1	0	0.000000	0.000000	0.000000	19.266940	0.000000	1.000000	0.000000
0.050000	0.050000	0.000000	1	1	0	0.000000	0.000000	0.000000	19.266940	0.000000	1.000000	0.056953
0.150000	0.050000	0.000000	2	1	0	0.000000	0.000000	0.000000	19.266940	0.000000	1.000000	0.056755
0.250000	0.050000	0.000000	3	1	0	0.000000	0.000000	0.000000	19.266940	0.000000	1.000000	0.055049
0.350000	0.050000	0.000000	4	1	0	0.000000	0.000000	0.000000	19.266940	0.000000	1.000000	0.053778
0.450000	0.050000	0.000000	5	1	0	0.000000	0.000000	0.000000	19.266940	0.000000	1.000000	0.052997
0.550000	0.050000	0.000000	6	1	0	0.000000	0.000000	0.000000	19.266940	0.000000	1.000000	0.052560
0.650000	0.050000	0.000000	7	1	0	0.000000	0.000000	0.000000	19.266940	0.000000	1.000000	0.052359
0.750000	0.050000	0.000000	8	1	0	0.000000	0.000000	0.000000	19.266940	0.000000	1.000000	0.052465
0.850000	0.050000	0.000000	9	1	0	0.000000	0.000000	0.000000	19.266940	0.000000	1.000000	0.053153
0.950000	0.050000	0.000000	10	1	0	0.000000	0.000000	0.000000	19.266940	0.000000	1.000000	0.054420
1.000000	0.050000	0.000000	11	1	0	0.000000	0.000000	0.000000	19.266940	0.000000	1.000000	0.000000
0.000000	0.150000	0.000000	0	2	0	0.000000	0.000000	0.000000	19.266940	0.000000	1.000000	0.000000
0.050000	0.150000	0.000000	1	2	0	0.000000	0.000000	0.000000	19.266940	0.000000	1.000000	0.056671
0.150000	0.150000	0.000000	2	2	0	0.000000	0.000000	0.000000	19.266940	0.000000	1.000000	0.056397
0.250000	0.150000	0.000000	3	2	0	0.000000	0.000000	0.000000	19.266940	0.000000	1.000000	0.054829
0.350000	0.150000	0.000000	4	2	0	0.000000	0.000000	0.000000	19.266940	0.000000	1.000000	0.053709
0.450000	0.150000	0.000000	5	2	0	0.000000	0.000000	0.000000	19.266940	0.000000	1.000000	0.053082
0.550000	0.150000	0.000000	6	2	0	0.000000	0.000000	0.000000	19.266940	0.000000	1.000000	0.052740
0.650000	0.150000	0.000000	7	2	0	0.000000	0.000000	0.000000	19.266940	0.000000	1.000000	0.052562
0.750000	0.150000	0.000000	8	2	0	0.000000	0.000000	0.000000	19.266940	0.000000	1.000000	0.052661
0.850000	0.150000	0.000000	9	2	0	0.000000	0.000000	0.000000	19.266940	0.000000	1.000000	0.053324
0.950000	0.150000	0.000000	10	2	0	0.000000	0.000000	0.000000	19.266940	0.000000	1.000000	0.054563
1.000000	0.150000	0.000000	11	2	0	0.000000	0.000000	0.000000	19.266940	0.000000	1.000000	0.000000
0.000000	0.250000	0.000000	0	3	0	0.000000	0.000000	0.000000	19.266940	0.000000	1.000000	0.000000
0.050000	0.250000	0.000000	1	3	0	0.000000	0.000000	0.000000	19.266940	0.000000	1.000000	0.054057
0.150000	0.250000	0.000000	2	3	0	0.000000	0.000000	0.000000	19.266940	0.000000	1.000000	0.054354
0.250000	0.250000	0.000000	3	3	0	0.000000	0.000000	0.000000	19.266940	0.000000	1.000000	0.053684
0.350000	0.250000	0.000000	4	3	0	0.000000	0.000000	0.000000	19.266940	0.000000	1.000000	0.053155
0.450000	0.250000	0.000000	5	3	0	0.000000	0.000000	0.000000	19.266940	0.000000	1.000000	0.052851
0.550000	0.250000	0.000000	6	3	0	0.000000	0.000000	0.000000	19.266940	0.000000	1.000000	0.052700
0.650000	0.250000	0.000000	7	3	0	0.000000	0.000000	0.000000	19.266940	0.000000	1.000000	0.052665
0.750000	0.250000	0.000000	8	3	0	0.000000	0.000000	0.000000	19.266940	0.000000	1.000000	0.052855
0.850000	0.250000	0.000000	9	3	0	0.000000	0.000000	0.000000	19.266940	0.000000	1.000000	0.053476
0.950000	0.250000	0.000000	10	3	0	0.000000	0.000000	0.000000	19.266940	0.000000	1.000000	0.054505
1.000000	0.250000	0.000000	11	3	0	0.000000	0.000000	0.000000	19.266940	0.000000	1.000000	0.000000
0.000000	0.350000	0.000000	0	4	0	0.000000	0.000000	0.000000	19.266940	0.000000	1.000000	0.000000
0.050000	0.350000	0.000000	1	4	0	0.000000	0.000000	0.000000	19.266940	0.000000	1.000000	0.052553
0.150000	0.350000	0.000000	2	4	0	0.000000	0.000000	0.000000	19.266940	0.000000	1.000000	0.053003
0.250000	0.350000	0.000000	3	4	0	0.000000	0.000000	0.000000	19.266940	0.000000	1.000000	0.052931
0.350000	0.350000	0.000000	4	4	0	0.000000	0.000000	0.000000	19.266940	0.000000	1.000000	0.052814
0.450000	0.350000	0.000000	5	4	0	0.000000	0.000000	0.000000	19.266940	0.000000	1.000000	0.052847
0.550000	0.350000	0.000000	6	4	0	0.000000	0.000000	0.000000	19.266940	0.000000	1.000000	0.053080
0.650000	0.350000	0.000000	7	4	0	0.000000	0.000000	0.000000	19.266940	0.000000	1.000000	0.053223
0.750000	0.350000	0.000000	8	4	0	0.000000	0.000000	0.000000	19.266940	0.000000	1.000000	0.053315
0.850000	0.350000	0.000000	9	4	0	0.000000	0.000000	0.000000	19.266940	0.000000	1.000000	0.053763
0.950000	0.350000	0.000000	10	4	0	0.000000	0.000000	0.000000	19.266940	0.000000	1.000000	0.053943
1.000000	0.350000	0.000000	11	4	0	0.000000	0.000000	0.000000	19.266940	0.000000	1.000000	0.000000
0.000000	0.450000	0.000000	0	5	0	0.000000	0.000000	0.000000	19.266940	0.000000	1.000000	0.000000
0.050000	0.450000	0.000000	1	5	0	0.000000	0.000000	0.000000	19.266940	0.000000	1.000000	0.052179
0.150000	0.450000	0.000000	2	5	0	0.000000	0.000000	0.000000	19.266940	0.000000	1.000000	0.052505
0.250000	0.450000	0.000000	3	5	0	0.000000	0.000000	0.000000	19.266940	0.000000	1.000000	0.052672
0.350000	0.450000	0.000000	4	5	0	0.000000	0.000000	0.000000	19.266940	0.000000	1.000000	0.052926
0.450000	0.450000	0.000000	5	5	0	0.000000	0.000000	0.000000	19.266940	0.000000	1.000000	0.053405
0.550000	0.450000	0.000000	6	5	0	0.000000	0.000000	0.000000	19.266940	0.000000	1.000000	0.054014
0.650000	0.450000	0.000000	7	5	0	0.000000	0.000000	0.000000	19.266940	0.000000	1.000000	0.053838
0.750000	0.450000	0.000000	8	5	0	0.000000	0.000000	0.000000	19.266940	0.000000	1.000000	0.053490
0.850000	0.450000	0.000000	9	5	0	0.000000	0.000000	0.000000	19.266940	0.000000	1.000000	0.053226
0.950000	0.450000	0.000000	10	5	0	0.000000	0.000000	0.000000	19.266940	0.000000	1.000000	0.053362
1.000000	0.450000	0.000000	11	5	0	0.000000	0.000000	0.000000	19.266940	0.000000	1.000000	0.000000
0.000000	0.550000	0.000000	0	6	0	0.000000	0.000000	0.000000	19.266940	0.000000	1.000000	0.000000
0.050000	0.550000	0.000000	1	6	0	0.000000	0.000000	0.000000	19.266940	0.000000	1.000000	0.052527
0.150000	0.550000	0.000000	2	6	0	0.000000	0.000000	0.000000	19.266940	0.000000	1.000000	0.052668
0.250000	0.550000	0.000000	3	6	0	0.000000	0.000000	0.000000	19.266940	0.000000	1.000000	0.053024
0.350000	0.550000	0.000000	4	6	0	0.000000	0.000000	0.000000	19.266940	0.000000	1.000000	0.053604
0.450000	0.550000	0.000000	5	6	0	0.000000	0.000000	0.000000	19.266940	0.000000	1.000000	0.054021
0.550000	0.550000	0.000000	6	6	0	0.000000	0.000000	0.000000	19.266940	0.000000	1.000000	0.053577
0.650000	0.550000	0.000000	7	6	0	0.000000	0.000000	0.000000	19.266940	0.000000	1.000000	0.052993
0.750000	0.550000	0.000000	8	6	0	0.000000	0.000000	0.000000	19.266940	0.000000	1.000000	0.052710
0.850000	0.550000	0.000000	9	6	0	0.000000	0.000000	0.000000	19.266940	0.000000	1.000000	0.052596
0.950000	0.550000	0.000000	10	6	0	0.000000	0.000000	0.000000	19.266940	0.000000	1.000000	0.052385
1.000000	0.550000	0.000000	11	6	0	0.000000	0.000000	0.000000	19.266940	0.000000	1.000000	0.000000
0.000000	0.650000	0.000000	0	7	0	0.000000	0.000000	0.000000	19.266940	0.000000	1.000000	0.000000
0.050000	0.650000	0.000000	1	7	0	0.000000	0.000000	0.000000	19.266940	0.000000	1.000000	0.053165
0.150000	0.650000	0.000000	2	7	0	0.000000	0.000000	0.000000	19.266940	0.000000	1.000000	0.053301
0.250000	0.650000	0.000000	3	7	0	0.000000	0.000000	0.000000	19.266940	0.000000	1.000000	0.053816
0.350000	0.650000	0.000000	4	7	0	0.000000	0.000000	0.000000	19.266940	0.000000	1.000000	0.053691
0.450000	0.650000	0.000000	5	7	0	0.000000	0.000000	0.000000	19.266940	0.000000	1.000000	0.053154
0.550000	0.650000	0.000000	6	7	0	0.000000	0.000000	0.000000	19.266940	0.000000	1.000000	0.052824
0.650000	0.650000	0.000000	7	7	0	0.000000	0.000000	0.000000	19.266940	0.000000	1.000000	0.052720
0.750000	0.650000	0.000000	8	7	0	0.000000	0.000000	0.000000	19.266940	0.000000	1.000000	0.052794
0.850000	0.650000	0.000000	9	7	0	0.000000	0.000000	0.000000	19.266940	0.000000	1.000000	0.052862
0.950000	0.650000	0.000000	10	7	0	0.000000	0.000000	0.000000	19.266940	0.000000	1.000000	0.052397
1.000000	0.650000	0.000000	11	7	0	0.000000	0.000000	0.000000	19.266940	0.000000	1.000000	0.000000
0.000000	0.750000	0.000000	0	8	0	0.000000	0.000000	0.000000	19.266940	0.000000	1.000000	0.000000
0.050000	0.750000	0.000000	1	8	0	0.000000	0.000000	0.000000	19.266940	0.000000	1.000000	0.054190
0.150000	0.750000	0.000000	2	8	0	0.000000	0.000000	0.000000	19.266940	0.000000	1.000000	0.053375
0.250000	0.750000	0.000000	3	8	0	0.000000	0.000000	0.000000	19.266940	0.000000	1.000000	0.053116
0.350000	0.750000	0.000000	4	8	0	0.000000	0.000000	0.000000	19.266940	0.000000	1.000000	0.052818
0.450000	0.750000	0.000000	5	8	0	0.000000	0.000000	0.000000	19.266940	0.000000	1.000000	0.052646
0.550000	0.750000	0.000000	6	8	0	0.000000	0.000000	0.000000	19.266940	0.000000	1.000000	0.052774
0.650000	0.750000	0.000000	7	8	0	0.000000	0.000000	0.000000	19.266940	0.000000	1.000000	0.053105
0.750000	0.750000	0.000000	8	8	0	0.000000	0.000000	0.000000	19.266940	0.000000	1.000000	0.053642
0.850000	0.750000	0.000000	9	8	0	0.000000	0.000000	0.000000	19.266940	0.000000	1.000000	0.054284
0.950000	0.750000	0.000000	10	8	0	0.000000	0.000000	0.000000	19.266940	0.000000	1.000000	0.053907
1.000000	0.750000	0.000000	11	8	0	0.000000	0.000000	0.000000	19.266940	0.000000	1.000000	0.000000
0.000000	0.850000	0.000000	0	9	0	0.000000	0.000000	0.000000	19.266940	0.000000	1.000000	0.000000
0.050000	0.850000	0.000000	1	9	0	0.000000	0.000000	0.000000	19.266940	0.000000	1.000000	0.054394
0.150000	0.850000	0.000000	2	9	0	0.000000	0.000000	0.000000	19.266940	0.000000	1.000000	0.053250
0.250000	0.850000	0.000000	3	9	0	0.000000	0.000000	0.000000	19.266940	0.000000	1.000000	0.052671
0.350000	0.850000	0.000000	4	9	0	0.000000	0.000000	0.000000	19.266940	0.000000	1.000000	0.052501
0.450000	0.850000	0.000000	5	9	0	0.000000	0.000000	0.000000	19.266940	0.000000	1.000000	0.052668
0.550000	0.850000	0.000000	6	9	0	0.000000	0.000000	0.000000	19.266940	0.000000	1.000000	0.053083
0.650000	0.850000	0.000000	7	9	0	0.000000	0.000000	0.000000	19.266940	0.000000	1.000000	0.053837
0.750000	0.850000	0.000000	8	9	0	0.000000	0.000000	0.000000	19.266940	0.000000	1.000000	0.055126
0.850000	0.850000	0.000000	9	9	0	0.000000	0.000000	0.000000	19.266940	0.000000	1.000000	0.056839
0.950000	0.850000	0.000000	10	9	0	0.000000	0.000000	0.000000	19.266940	0.000000	1.000000	0.057155
1.000000	0.850000	0.000000	11	9	0	0.000000	0.000000	0.000000	19.266940	0.000000	1.000000	0.000000
0.000000	0.950000	0.000000	0	10	0	0.000000	0.000000	0.000000	19.266940	0.000000	1.000000	0.000000
0.050000	0.950000	0.000000	1	10	0	0.000000	0.000000	0.000000	19.266940	0.000000	1.000000	0.054181
0.150000	0.950000	0.000000	2	10	0	0.000000	0.000000	0.000000	19.266940	0.000000	1.000000	0.053031
0.250000	0.950000	0.000000	3	10	0	0.000000	0.000000	0.000000	19.266940	0.000000	1.000000	0.052378
0.350000	0.950000	0.000000	4	10	0	0.000000	0.000000	0.000000	19.266940	0.000000	1.000000	0.052248
0.450000	0.950000	0.000000	5	10	0	0.000000	0.000000	0.000000	19.266940	0.000000	1.000000	0.052461
0.550000	0.950000	0.000000	6	10	0	0.000000	0.000000	0.000000	19.266940	0.000000	1.000000	0.052977
0.650000	0.950000	0.000000	7	10	0	0.000000	0.000000	0.000000	19.266940	0.000000	1.000000	0.053911
0.750000	0.950000	0.000000	8	10	0	0.000000	0.000000	0.000000	19.266940	0.000000	1.000000	0.055405
0.850000	0.950000	0.000000	9	10	0	0.000000	0.000000	0.000000	19.266940	0.000000	1.000000	0.057343
0.950000	0.950000	0.000000	10	10	0	0.000000	0.000000	0.000000	19.266940	0.000000	1.000000	0.057689
1.000000	0.950000	0.000000	11	10	0	0.000000	0.000000	0.000000	19.266940	0.000000	1.000000	0.000000
0.000000	1.000000	0.000000	0	11	0	0.000000	0.000000	0.000000	19.263547	0.000000	1.000000	0.000000
0.050000	1.000000	0.000000	1	11	0	0.000000	0.000000	0.000000	19.261851	0.000000	1.000000	0.000000
0.150000	1.000000	0.000000	2	11	0	0.000000	0.000000	0.000000	19.261851	0.000000	1.000000	0.000000
0.250000	1.000000	0.000000	3	11	0	0.000000	0.000000	0.000000	19.261851	0.000000	1.000000	0.000000
0.350000	1.000000	0.000000	4	11	0	0.000000	0.000000	0.000000	19.261851	0.000000	1.000000	0.000000
0.450000	1.000000	0.000000	5	11	0	0.000000	0.000000	0.000000	19.261851	0.000000	1.000000	0.000000
0.550000	1.000000	0.000000	6	11	0	0.000000	0.000000	0.000000	19.261851	0.000000	1.000000	0.000000
0.650000	1.000000	0.000000	7	11	0	0.000000	0.000000	0.000000	19.261851	0.000000	1.000000	0.000000
0.750000	1.000000	0.000000	8	11	0	0.000000	0.000000	0.000000	19.261851	0.000000	1.000000	0.000000
0.850000	1.000000	0.000000	9	11	0	0.000000	0.000000	0.000000	19.261851	0.000000	1.000000	0.000000
0.950000	1.000000	0.000000	10	11	0	0.000000	0.000000	0.000000	19.261851	0.000000	1.000000	0.000000
1.000000	1.000000	0.000000	11	11	0	0.000000	0.000000	0.000000	19.263547	0.000000	1.000000	0.000000
0.000000	0.000000	0.050000	0	0	1	0.000000	0.000000	0.000000	19.261738	0.000000	1.000000	0.000000
0.050000	0.000000	0.050000	1	0	1	0.000000	0.000000	0.000000	19.261738	0.000000	1.000000	0.056953
0.150000	0.000000	0.050000	2	0	1	0.000000	0.000000	0.000000	19.261738	0.000000	1.000000	0.056755
0.250000	0.000000	0.050000	3	0	1	0.000000	0.000000	0.000000	19.261738	0.000000	1.000000	0.055049
0.350000	0.000000	0.050000	4	0	1	0.000000	0.000000	0.000000	19.261738	0.000000	1.000000	0.053778
0.450000	0.000000	0.050000	5	0	1	0.000000	0.000000	0.000000	19.261738	0.000000	1.000000	0.052997
0.550000	0.000000	0.050000	6	0	1	0.000000	0.000000	0.000000	19.261738	0.000000	1.000000	0.052560
0.650000	0.000000	0.050000	7	0	1	0.000000	0.000000	0.000000	19.261738	0.000000	1.000000	0.052359
0.750000	0.000000	0.050000	8	0	1	0.000000	0.000000	0.000000	19.261738	0.000000	1.000000	0.052465
0.850000	0.000000	0.050000	9	0	1	0.000000	0.000000	0.000000	19.261738	0.000000	1.000000	0.053153
0.950000	0.000000	0.050000	10	0	1	0.000000	0.000000	0.000000	19.261738	0.000000	1.000000	0.054420
1.000000	0.000000	0.050000	11	0	1	0.000000	0.000000	0.000000	19.261738	0.000000	1.000000	0.000000
0.000000	0.050000	0.050000	0	1	1	0.000000	0.000000	0.000000	19.265454	0.000000	1.000000	0.056953
0.050000	0.050000	0.050000	1	1	1	0.019704	0.005128	-0.024830	16.728261	0.000000	-1.000000	0.056953
0.150000	0.050000	0.050000	2	1	1	0.051332	0.006920	-0.018842	16.722809	0.000000	-1.000000	0.056755
0.250000	0.050000	0.050000	3	1	1	0.070303	0.007989	-0.015034	16.729844	0.000000	-1.000000	0.055049
0.350000	0.050000	0.050000	4	1	1	0.080777	0.008440	-0.011870	16.744494	0.000000	-1.000000	0.053778
0.450000	0.050000	0.050000	5	1	1	0.085471	0.008023	-0.009292	16.763918	0.000000	-1.000000	0.052997
0.550000	0.050000	0.050000	6	1	1	0.086833	0.007006	-0.007110	16.785569	0.000000	-1.000000	0.052560
0.650000	0.050000	0.050000	7	1	1	0.085908	0.005941	-0.004925	16.807203	0.000000	-1.000000	0.052359
0.750000	0.050000	0.050000	8	1	1	0.081092	0.005246	-0.001461	16.827071	0.000000	-1.000000	0.052465
0.850000	0.050000	0.050000	9	1	1	0.066737	0.004529	0.006027	16.849031	0.000000	-1.000000	0.053153
0.950000	0.050000	0.050000	10	1	1	0.028088	0.002960	0.025121	16.937021	0.000000	-1.000000	0.054420
1.000000	0.050000	0.050000	11	1	1	0.000000	0.000000	0.000000	19.265694	0.000000	1.000000	0.054420
0.000000	0.150000	0.050000	0	2	1	0.000000	0.000000	0.000000	19.265454	0.000000	1.000000	0.056671
0.050000	0.150000	0.050000	1	2	1	0.017832	0.029606	-0.037178	16.628387	0.000000	-1.000000	0.056671
0.150000	0.150000	0.050000	2	2	1	0.047226	0.030069	-0.027789	16.637667	0.000000	-1.000000	0.056397
0.250000	0.150000	0.050000	3	2	1	0.065567	0.028155	-0.018953	16.662883	0.000000	-1.000000	0.054829
0.350000	0.150000	0.050000	4	2	1	0.075574	0.025808	-0.012162	16.691675	0.000000	-1.000000	0.053709
0.450000	0.150000	0.050000	5	2	1	0.080269	0.023023	-0.008448	16.717127	0.000000	-1.000000	0.053082
0.550000	0.150000	0.050000	6	2	1	0.082419	0.019899	-0.006581	16.738296	0.000000	-1.000000	0.052740
0.650000	0.150000	0.050000	7	2	1	0.083002	0.016856	-0.004879	16.755837	0.000000	-1.000000	0.052562
0.750000	0.150000	0.050000	8	2	1	0.079886	0.014338	-0.000842	16.771316	0.000000	-1.000000	0.052661
0.850000	0.150000	0.050000	9	2	1	0.067127	0.012078	0.006717	16.788195	0.000000	-1.000000	0.053324
0.950000	0.150000	0.050000	10	2	1	0.028690	0.010634	0.023970	16.868585	0.000000	-1.000000	0.054563
1.000000	0.150000	0.050000	11	2	1	0.000000	0.000000	0.000000	19.265694	0.000000	1.000000	0.054563
0.000000	0.250000	0.050000	0	3	1	0.000000	0.000000	0.000000	19.265454	0.000000	1.000000	0.054057
0.050000	0.250000	0.050000	1	3	1	0.012878	0.055391	-0.019310	16.644479	0.000000	-1.000000	0.054057
0.150000	0.250000	0.050000	2	3	1	0.036132	0.053325	-0.017401	16.637286	0.000000	-1.000000	0.054354
0.250000	0.250000	0.050000	3	3	1	0.053284	0.046620	-0.013064	16.655190	0.000000	-1.000000	0.053684
0.350000	0.250000	0.050000	4	3	1	0.063962	0.040046	-0.009216	16.679591	0.000000	-1.000000	0.053155
0.450000	0.250000	0.050000	5	3	1	0.070261	0.034184	-0.006586	16.701038	0.000000	-1.000000	0.052851
0.550000	0.250000	0.050000	6	3	1	0.074477	0.028236	-0.004278	16.717769	0.000000	-1.000000	0.052700
0.650000	0.250000	0.050000	7	3	1	0.077029	0.022245	-0.001158	16.730566	0.000000	-1.000000	0.052665
0.750000	0.250000	0.050000	8	3	1	0.075026	0.017382	0.003530	16.742008	0.000000	-1.000000	0.052855
0.850000	0.250000	0.050000	9	3	1	0.064691	0.013506	0.009185	16.754099	0.000000	-1.000000	0.053476
0.950000	0.250000	0.050000	10	3	1	0.028546	0.021890	0.021998	16.836006	0.000000	-1.000000	0.054505
1.000000	0.250000	0.050000	11	3	1	0.000000	0.000000	0.000000	19.265694	0.000000	1.000000	0.054505
0.000000	0.350000	0.050000	0	4	1	0.000000	0.000000	0.000000	19.265454	0.000000	1.000000	0.052553
0.050000	0.350000	0.050000	1	4	1	0.008196	0.061570	-0.007937	16.686824	0.000000	-1.000000	0.052553
0.150000	0.350000	0.050000	2	4	1	0.024938	0.060886	-0.009079	16.664597	0.000000	-1.000000	0.053003
0.250000	0.350000	0.050000	3	4	1	0.040126	0.054259	-0.007992	16.670893	0.000000	-1.000000	0.052931
0.350000	0.350000	0.050000	4	4	1	0.051046	0.046895	-0.005821	16.684317	0.000000	-1.000000	0.052814
0.450000	0.350000	0.050000	5	4	1	0.057751	0.037665	-0.001726	16.695550	0.000000	-1.000000	0.052847
0.550000	0.350000	0.050000	6	4	1	0.061940	0.024565	0.004352	16.705472	0.000000	-1.000000	0.053080
0.650000	0.350000	0.050000	7	4	1	0.064802	0.011711	0.009848	16.713096	0.000000	-1.000000	0.053223
0.750000	0.350000	0.050000	8	4	1	0.061340	0.006498	0.014635	16.720250	0.000000	-1.000000	0.053315
0.850000	0.350000	0.050000	9	4	1	0.052708	-0.005124	0.021106	16.728578	0.000000	-1.000000	0.053763
0.950000	0.350000	0.050000	10	4	1	0.024317	0.029664	0.023082	16.835938	0.000000	-1.000000	0.053943
1.000000	0.350000	0.050000	11	4	1	0.000000	0.000000	0.000000	19.265694	0.000000	1.000000	0.053943
0.000000	0.450000	0.050000	0	5	1	0.000000	0.000000	0.000000	19.265454	0.000000	1.000000	0.052179
0.050000	0.450000	0.050000	1	5	1	0.005328	0.056799	-0.000812	16.718159	0.000000	-1.000000	0.052179
0.150000	0.450000	0.050000	2	5	1	0.016999	0.059169	-0.004092	16.688855	0.000000	-1.000000	0.052505
0.250000	0.450000	0.050000	3	5	1	0.028905	0.053407	-0.003362	16.685939	0.000000	-1.000000	0.052672
0.350000	0.450000	0.050000	4	5	1	0.036512	0.043559	0.002828	16.689039	0.000000	-1.000000	0.052926
0.450000	0.450000	0.050000	5	5	1	0.036657	0.026598	0.012257	16.697086	0.000000	-1.000000	0.053405
0.550000	0.450000	0.050000	6	5	1	0.017526	0.005216	0.030453	16.716423	0.000000	-1.000000	0.054014
0.650000	0.450000	0.050000	7	5	1	-0.009298	-0.019424	0.029771	16.702789	0.000000	-1.000000	0.053838
0.750000	0.450000	0.050000	8	5	1	-0.018108	-0.027279	0.022909	16.681920	0.000000	-1.000000	0.053490
0.850000	0.450000	0.050000	9	5	1	-0.017930	-0.038972	0.017414	16.695021	0.000000	-1.000000	0.053226
0.950000	0.450000	0.050000	10	5	1	-0.009268	-0.006902	0.028530	16.807087	0.000000	-1.000000	0.053362
1.000000	0.450000	0.050000	11	5	1	0.000000	0.000000	0.000000	19.265694	0.000000	1.000000	0.053362
0.000000	0.550000	0.050000	0	6	1	0.000000	0.000000	0.000000	19.265454	0.000000	1.000000	0.052527
0.050000	0.550000	0.050000	1	6	1	0.004111	0.037083	0.011090	16.762214	0.000000	-1.000000	0.052527
0.150000	0.550000	0.050000	2	6	1	0.011217	0.046935	0.006989	16.710474	0.000000	-1.000000	0.052668
0.250000	0.550000	0.050000	3	6	1	0.015368	0.040419	0.009628	16.700166	0.000000	-1.000000	0.053024
0.350000	0.550000	0.050000	4	6	1	0.013410	0.020896	0.020899	16.703373	0.000000	-1.000000	0.053604
0.450000	0.550000	0.050000	5	6	1	-0.012205	-0.002510	0.041242	16.762748	0.000000	-1.000000	0.054021
0.550000	0.550000	0.050000	6	6	1	-0.036529	-0.024316	0.018125	16.670398	0.000000	-1.000000	0.053577
0.650000	0.550000	0.050000	7	6	1	-0.037537	-0.047557	0.007131	16.652019	0.000000	-1.000000	0.052993
0.750000	0.550000	0.050000	8	6	1	-0.032174	-0.057718	0.002194	16.640339	0.000000	-1.000000	0.052710
0.850000	0.550000	0.050000	9	6	1	-0.021678	-0.062805	0.001074	16.641284	0.000000	-1.000000	0.052596
0.950000	0.550000	0.050000	10	6	1	-0.007865	-0.056489	0.003925	16.674174	0.000000	-1.000000	0.052385
1.000000	0.550000	0.050000	11	6	1	0.000000	0.000000	0.000000	19.265694	0.000000	1.000000	0.052385
0.000000	0.650000	0.050000	0	7	1	0.000000	0.000000	0.000000	19.265454	0.000000	1.000000	0.053165
0.050000	0.650000	0.050000	1	7	1	0.000388	-0.007321	0.028814	16.964966	0.000000	-1.000000	0.053165
0.150000	0.650000	0.050000	2	7	1	-0.001632	0.017644	0.021713	16.757016	0.000000	-1.000000	0.053301
0.250000	0.650000	0.050000	3	7	1	-0.017515	0.014651	0.028454	16.731520	0.000000	-1.000000	0.053816
0.350000	0.650000	0.050000	4	7	1	-0.043938	-0.007744	0.023798	16.701820	0.000000	-1.000000	0.053691
0.450000	0.650000	0.050000	5	7	1	-0.059128	-0.027537	0.008520	16.676785	0.000000	-1.000000	0.053154
0.550000	0.650000	0.050000	6	7	1	-0.059417	-0.042313	-0.000265	16.659535	0.000000	-1.000000	0.052824
0.650000	0.650000	0.050000	7	7	1	-0.052963	-0.054026	-0.005983	16.646516	0.000000	-1.000000	0.052720
0.750000	0.650000	0.050000	8	7	1	-0.041776	-0.062987	-0.008158	16.629245	0.000000	-1.000000	0.052794
0.850000	0.650000	0.050000	9	7	1	-0.026434	-0.069815	-0.008670	16.620255	0.000000	-1.000000	0.052862
0.950000	0.650000	0.050000	10	7	1	-0.008888	-0.069937	-0.007225	16.640280	0.000000	-1.000000	0.052397
1.000000	0.650000	0.050000	11	7	1	0.000000	0.000000	0.000000	19.265694	0.000000	1.000000	0.052397
0.000000	0.750000	0.050000	0	8	1	0.000000	0.000000	0.000000	19.265454	0.000000	1.000000	0.054190
0.050000	0.750000	0.050000	1	8	1	-0.030781	-0.027028	0.021284	16.838847	0.000000	-1.000000	0.054190
0.150000	0.750000	0.050000	2	8	1	-0.068130	-0.007845	0.012748	16.732108	0.000000	-1.000000	0.053375
0.250000	0.750000	0.050000	3	8	1	-0.075602	-0.008385	0.008955	16.714910	0.000000	-1.000000	0.053116
0.350000	0.750000	0.050000	4	8	1	-0.077216	-0.020933	0.003043	16.701315	0.000000	-1.000000	0.052818
0.450000	0.750000	0.050000	5	8	1	-0.076838	-0.031718	-0.003194	16.685888	0.000000	-1.000000	0.052646
0.550000	0.750000	0.050000	6	8	1	-0.073218	-0.039616	-0.006922	16.666501	0.000000	-1.000000	0.052774
0.650000	0.750000	0.050000	7	8	1	-0.066406	-0.047006	-0.009821	16.641167	0.000000	-1.000000	0.053105
0.750000	0.750000	0.050000	8	8	1	-0.054933	-0.055156	-0.013549	16.613209	0.000000	-1.000000	0.053642
0.850000	0.750000	0.050000	9	8	1	-0.037098	-0.063134	-0.017305	16.592494	0.000000	-1.000000	0.054284
0.950000	0.750000	0.050000	10	8	1	-0.013229	-0.065979	-0.018842	16.597238	0.000000	-1.000000	0.053907
1.000000	0.750000	0.050000	11	8	1	0.000000	0.000000	0.000000	19.265694	0.000000	1.000000	0.053907
0.000000	0.850000	0.050000	0	9	1	0.000000	0.000000	0.000000	19.265454	0.000000	1.000000	0.054394
0.050000	0.850000	0.050000	1	9	1	-0.029455	-0.010954	0.022874	16.868627	0.000000	-1.000000	0.054394
0.150000	0.850000	0.050000	2	9	1	-0.068518	-0.011554	0.007130	16.769702	0.000000	-1.000000	0.053250
0.250000	0.850000	0.050000	3	9	1	-0.081255	-0.013940	0.000628	16.746117	0.000000	-1.000000	0.052671
0.350000	0.850000	0.050000	4	9	1	-0.085080	-0.018667	-0.003912	16.726691	0.000000	-1.000000	0.052501
0.450000	0.850000	0.050000	5	9	1	-0.085444	-0.023275	-0.006674	16.704660	0.000000	-1.000000	0.052668
0.550000	0.850000	0.050000	6	9	1	-0.083662	-0.027495	-0.009188	16.678870	0.000000	-1.000000	0.053083
0.650000	0.850000	0.050000	7	9	1	-0.078733	-0.031583	-0.013358	16.649642	0.000000	-1.000000	0.053837
0.750000	0.850000	0.050000	8	9	1	-0.067992	-0.035497	-0.020565	16.618700	0.000000	-1.000000	0.055126
0.850000	0.850000	0.050000	9	9	1	-0.048710	-0.039061	-0.029417	16.592716	0.000000	-1.000000	0.056839
0.950000	0.850000	0.050000	10	9	1	-0.018347	-0.039854	-0.038848	16.583394	0.000000	-1.000000	0.057155
1.000000	0.850000	0.050000	11	9	1	0.000000	0.000000	0.000000	19.265694	0.000000	1.000000	0.057155
0.000000	0.950000	0.050000	0	10	1	0.000000	0.000000	0.000000	19.265454	0.000000	1.000000	0.054181
0.050000	0.950000	0.050000	1	10	1	-0.027094	-0.002188	0.024904	16.942367	0.000000	-1.000000	0.054181
0.150000	0.950000	0.050000	2	10	1	-0.064945	-0.004540	0.006212	16.834998	0.000000	-1.000000	0.053031
0.250000	0.950000	0.050000	3	10	1	-0.080057	-0.005721	-0.001368	16.803803	0.000000	-1.000000	0.052378
0.350000	0.950000	0.050000	4	10	1	-0.086215	-0.007032	-0.005235	16.777093	0.000000	-1.000000	0.052248
0.450000	0.950000	0.050000	5	10	1	-0.088504	-0.008468	-0.007983	16.748031	0.000000	-1.000000	0.052461
0.550000	0.950000	0.050000	6	10	1	-0.088003	-0.009880	-0.010871	16.718646	0.000000	-1.000000	0.052977
0.650000	0.950000	0.050000	7	10	1	-0.083550	-0.010851	-0.014315	16.691331	0.000000	-1.000000	0.053911
0.750000	0.950000	0.050000	8	10	1	-0.072713	-0.011096	-0.018466	16.669236	0.000000	-1.000000	0.055405
0.850000	0.950000	0.050000	9	10	1	-0.053029	-0.010828	-0.023136	16.656176	0.000000	-1.000000	0.057343
0.950000	0.950000	0.050000	10	10	1	-0.020358	-0.009673	-0.030026	16.658175	0.000000	-1.000000	0.057689
1.000000	0.950000	0.050000	11	10	1	0.000000	0.000000	0.000000	19.265694	0.000000	1.000000	0.057689
0.000000	1.000000	0.050000	0	11	1	0.000000	0.000000	0.000000	19.261851	0.000000	1.000000	0.000000
0.050000	1.000000	0.050000	1	11	1	0.000000	0.000000	0.000000	19.261851	0.000000	1.000000	0.054181
0.150000	1.000000	0.050000	2	11	1	0.000000	0.000000	0.000000	19.261851	0.000000	1.000000	0.053031
0.250000	1.000000	0.050000	3	11	1	0.000000	0.000000	0.000000	19.261851	0.000000	1.000000	0.052378
0.350000	1.000000	0.050000	4	11	1	0.000000	0.000000	0.000000	19.261851	0.000000	1.000000	0.052248
0.450000	1.000000	0.050000	5	11	1	0.000000	0.000000	0.000000	19.261851	0.000000	1.000000	0.052461
0.550000	1.000000	0.050000	6	11	1	0.000000	0.000000	0.000000	19.261851	0.000000	1.000000	0.052977
0.650000	1.000000	0.050000	7	11	1	0.000000	0.000000	0.000000	19.261851	0.000000	1.000000	0.053911
0.750000	1.000000	0.050000	8	11	1	0.000000	0.000000	0.000000	19.261851	0.000000	1.000000	0.055405
0.850000	1.000000	0.050000	9	11	1	0.000000	0.000000	0.000000	19.261851	0.000000	1.000000	0.057343
0.950000	1.000000	0.050000	10	11	1	0.000000	0.000000	0.000000	19.261851	0.000000	1.000000	0.057689
1.000000	1.000000	0.050000	11	11	1	0.000000	0.000000	0.000000	19.261851	0.000000	1.000000	0.000000
0.000000	0.000000	0.150000	0	0	2	0.000000	0.000000	0.000000	19.261738	0.000000	1.000000	0.000000
0.050000	0.000000	0.150000	1	0	2	0.000000	0.000000	0.000000	19.261738	0.000000	1.000000	0.043861
0.150000	0.000000	0.150000	2	0	2	0.000000	0.000000	0.000000	19.261738	0.000000	1.000000	0.043548
0.250000	0.000000	0.150000	3	0	2	0.000000	0.000000	0.000000	19.261738	0.000000	1.000000	0.042375
0.350000	0.000000	0.150000	4	0	2	0.000000	0.000000	0.000000	19.261738	0.000000	1.000000	0.041549
0.450000	0.000000	0.150000	5	0	2	0.000000	0.000000	0.000000	19.261738	0.000000	1.000000	0.041120
0.550000	0.000000	0.150000	6	0	2	0.000000	0.000000	0.000000	19.261738	0.000000	1.000000	0.040909
0.650000	0.000000	0.150000	7	0	2	0.000000	0.000000	0.000000	19.261738	0.000000	1.000000	0.040798
0.750000	0.000000	0.150000	8	0	2	0.000000	0.000000	0.000000	19.261738	0.000000	1.000000	0.040806
0.850000	0.000000	0.150000	9	0	2	0.000000	0.000000	0.000000	19.261738	0.000000	1.000000	0.041272
0.950000	0.000000	0.150000	10	0	2	0.000000	0.000000	0.000000	19.261738	0.000000	1.000000	0.042851
1.000000	0.000000	0.150000	11	0	2	0.000000	0.000000	0.000000	19.261738	0.000000	1.000000	0.000000
0.000000	0.050000	0.150000	0	1	2	0.000000	0.000000	0.000000	19.265454	0.000000	1.000000	0.043861
0.050000	0.050000	0.150000	1	1	2	0.012396	0.000325	-0.062378	16.641312	0.000000	-1.000000	0.043861
0.150000	0.050000	0.150000	2	1	2	0.033863	0.000661	-0.047412	16.663459	0.000000	-1.000000	0.043548