TITLE = "dt=0.100000s, t=310.000000s, nu=0.000016, Lx=1.000000, Ly=1.000000, Lz=1.000000, Nx=32, Ny=32, Nz=32 "
VARIABLES =X, Y, Z, I, J, K, U, V, W, T, Xi, FlagP, P 
ZONE F=POINT, I=32, J=32, K=32
0.000000	0.000000	0.000000	0	0	0	0.000000	0.000000	0.000000	19.907052	0.000000	1.000000	0.000000
0.016667	0.000000	0.000000	1	0	0	0.000000	0.000000	0.000000	19.899115	0.000000	1.000000	0.000000
0.050000	0.000000	0.000000	2	0	0	0.000000	0.000000	0.000000	19.899115	0.000000	1.000000	0.000000
0.083333	0.000000	0.000000	3	0	0	0.000000	0.000000	0.000000	19.899115	0.000000	1.000000	0.000000
0.116666	0.000000	0.000000	4	0	0	0.000000	0.000000	0.000000	19.899115	0.000000	1.000000	0.000000
0.149999	0.000000	0.000000	5	0	0	0.000000	0.000000	0.000000	19.899115	0.000000	1.000000	0.000000
0.183332	0.000000	0.000000	6	0	0	0.000000	0.000000	0.000000	19.899115	0.000000	1.000000	0.000000
0.216665	0.000000	0.000000	7	0	0	0.000000	0.000000	0.000000	19.899115	0.000000	1.000000	0.000000
0.249998	0.000000	0.000000	8	0	0	0.000000	0.000000	0.000000	19.899115	0.000000	1.000000	0.000000
0.283331	0.000000	0.000000	9	0	0	0.000000	0.000000	0.000000	19.899115	0.000000	1.000000	0.000000
0.316663	0.000000	0.000000	10	0	0	0.000000	0.000000	0.000000	19.899115	0.000000	1.000000	0.000000
0.349997	0.000000	0.000000	11	0	0	0.000000	0.000000	0.000000	19.899115	0.000000	1.000000	0.000000
0.383329	0.000000	0.000000	12	0	0	0.000000	0.000000	0.000000	19.899115	0.000000	1.000000	0.000000
0.416663	0.000000	0.000000	13	0	0	0.000000	0.000000	0.000000	19.899115	0.000000	1.000000	0.000000
0.449995	0.000000	0.000000	14	0	0	0.000000	0.000000	0.000000	19.899115	0.000000	1.000000	0.000000
0.483329	0.000000	0.000000	15	0	0	0.000000	0.000000	0.000000	19.899115	0.000000	1.000000	0.000000
0.516662	0.000000	0.000000	16	0	0	0.000000	0.000000	0.000000	19.899115	0.000000	1.000000	0.000000
0.549995	0.000000	0.000000	17	0	0	0.000000	0.000000	0.000000	19.899115	0.000000	1.000000	0.000000
0.583328	0.000000	0.000000	18	0	0	0.000000	0.000000	0.000000	19.899115	0.000000	1.000000	0.000000
0.616661	0.000000	0.000000	19	0	0	0.000000	0.000000	0.000000	19.899115	0.000000	1.000000	0.000000
0.649994	0.000000	0.000000	20	0	0	0.000000	0.000000	0.000000	19.899115	0.000000	1.000000	0.000000
0.683327	0.000000	0.000000	21	0	0	0.000000	0.000000	0.000000	19.899115	0.000000	1.000000	0.000000
0.716660	0.000000	0.000000	22	0	0	0.000000	0.000000	0.000000	19.899115	0.000000	1.000000	0.000000
0.749993	0.000000	0.000000	23	0	0	0.000000	0.000000	0.000000	19.899115	0.000000	1.000000	0.000000
0.783326	0.000000	0.000000	24	0	0	0.000000	0.000000	0.000000	19.899115	0.000000	1.000000	0.000000
0.816659	0.000000	0.000000	25	0	0	0.000000	0.000000	0.000000	19.899115	0.000000	1.000000	0.000000
0.849992	0.000000	0.000000	26	0	0	0.000000	0.000000	0.000000	19.899115	0.000000	1.000000	0.000000
0.883325	0.000000	0.000000	27	0	0	0.000000	0.000000	0.000000	19.899115	0.000000	1.000000	0.000000
0.916658	0.000000	0.000000	28	0	0	0.000000	0.000000	0.000000	19.899115	0.000000	1.000000	0.000000
0.949991	0.000000	0.000000	29	0	0	0.000000	0.000000	0.000000	19.899115	0.000000	1.000000	0.000000
0.983329	0.000000	0.000000	30	0	0	0.000000	0.000000	0.000000	19.899115	0.000000	1.000000	0.000000
1.000000	0.000000	0.000000	31	0	0	0.000000	0.000000	0.000000	19.907052	0.000000	1.000000	0.000000
0.000000	0.016667	0.000000	0	1	0	0.000000	0.000000	0.000000	19.922926	0.000000	1.000000	0.000000
0.016667	0.016667	0.000000	1	1	0	0.000000	0.000000	0.000000	19.922926	0.000000	1.000000	-0.283045
0.050000	0.016667	0.000000	2	1	0	0.000000	0.000000	0.000000	19.922926	0.000000	1.000000	-0.282704
0.083333	0.016667	0.000000	3	1	0	0.000000	0.000000	0.000000	19.922926	0.000000	1.000000	-0.282451
0.116666	0.016667	0.000000	4	1	0	0.000000	0.000000	0.000000	19.922926	0.000000	1.000000	-0.282360
0.149999	0.016667	0.000000	5	1	0	0.000000	0.000000	0.000000	19.922926	0.000000	1.000000	-0.282393
0.183332	0.016667	0.000000	6	1	0	0.000000	0.000000	0.000000	19.922926	0.000000	1.000000	-0.282478
0.216665	0.016667	0.000000	7	1	0	0.000000	0.000000	0.000000	19.922926	0.000000	1.000000	-0.282531
0.249998	0.016667	0.000000	8	1	0	0.000000	0.000000	0.000000	19.922926	0.000000	1.000000	-0.282473
0.283331	0.016667	0.000000	9	1	0	0.000000	0.000000	0.000000	19.922926	0.000000	1.000000	-0.282252
0.316663	0.016667	0.000000	10	1	0	0.000000	0.000000	0.000000	19.922926	0.000000	1.000000	-0.281948
0.349997	0.016667	0.000000	11	1	0	0.000000	0.000000	0.000000	19.922926	0.000000	1.000000	-0.281926
0.383329	0.016667	0.000000	12	1	0	0.000000	0.000000	0.000000	19.922926	0.000000	1.000000	-0.282192
0.416663	0.016667	0.000000	13	1	0	0.000000	0.000000	0.000000	19.922926	0.000000	1.000000	-0.282832
0.449995	0.016667	0.000000	14	1	0	0.000000	0.000000	0.000000	19.922926	0.000000	1.000000	-0.283806
0.483329	0.016667	0.000000	15	1	0	0.000000	0.000000	0.000000	19.922926	0.000000	1.000000	-0.284757
0.516662	0.016667	0.000000	16	1	0	0.000000	0.000000	0.000000	19.922926	0.000000	1.000000	-0.285416
0.549995	0.016667	0.000000	17	1	0	0.000000	0.000000	0.000000	19.922926	0.000000	1.000000	-0.285732
0.583328	0.016667	0.000000	18	1	0	0.000000	0.000000	0.000000	19.922926	0.000000	1.000000	-0.285790
0.616661	0.016667	0.000000	19	1	0	0.000000	0.000000	0.000000	19.922926	0.000000	1.000000	-0.285683
0.649994	0.016667	0.000000	20	1	0	0.000000	0.000000	0.000000	19.922926	0.000000	1.000000	-0.285464
0.683327	0.016667	0.000000	21	1	0	0.000000	0.000000	0.000000	19.922926	0.000000	1.000000	-0.285149
0.716660	0.016667	0.000000	22	1	0	0.000000	0.000000	0.000000	19.922926	0.000000	1.000000	-0.284731
0.749993	0.016667	0.000000	23	1	0	0.000000	0.000000	0.000000	19.922926	0.000000	1.000000	-0.284200
0.783326	0.016667	0.000000	24	1	0	0.000000	0.000000	0.000000	19.922926	0.000000	1.000000	-0.283554
0.816659	0.016667	0.000000	25	1	0	0.000000	0.000000	0.000000	19.922926	0.000000	1.000000	-0.282804
0.849992	0.016667	0.000000	26	1	0	0.000000	0.000000	0.000000	19.922926	0.000000	1.000000	-0.281974
0.883325	0.016667	0.000000	27	1	0	0.000000	0.000000	0.000000	19.922926	0.000000	1.000000	-0.281077
0.916658	0.016667	0.000000	28	1	0	0.000000	0.000000	0.000000	19.922926	0.000000	1.000000	-0.280066
0.949991	0.016667	0.000000	29	1	0	0.000000	0.000000	0.000000	19.922926	0.000000	1.000000	-0.278857
0.983329	0.016667	0.000000	30	1	0	0.000000	0.000000	0.000000	19.922926	0.000000	1.000000	-0.279467
1.000000	0.016667	0.000000	31	1	0	0.000000	0.000000	0.000000	19.922926	0.000000	1.000000	0.000000
0.000000	0.050000	0.000000	0	2	0	0.000000	0.000000	0.000000	19.922926	0.000000	1.000000	0.000000
0.016667	0.050000	0.000000	1	2	0	0.000000	0.000000	0.000000	19.922926	0.000000	1.000000	-0.285004
0.050000	0.050000	0.000000	2	2	0	0.000000	0.000000	0.000000	19.922926	0.000000	1.000000	-0.284848
0.083333	0.050000	0.000000	3	2	0	0.000000	0.000000	0.000000	19.922926	0.000000	1.000000	-0.284763
0.116666	0.050000	0.000000	4	2	0	0.000000	0.000000	0.000000	19.922926	0.000000	1.000000	-0.284751
0.149999	0.050000	0.000000	5	2	0	0.000000	0.000000	0.000000	19.922926	0.000000	1.000000	-0.284798
0.183332	0.050000	0.000000	6	2	0	0.000000	0.000000	0.000000	19.922926	0.000000	1.000000	-0.284839
0.216665	0.050000	0.000000	7	2	0	0.000000	0.000000	0.000000	19.922926	0.000000	1.000000	-0.284785
0.249998	0.050000	0.000000	8	2	0	0.000000	0.000000	0.000000	19.922926	0.000000	1.000000	-0.284534
0.283331	0.050000	0.000000	9	2	0	0.000000	0.000000	0.000000	19.922926	0.000000	1.000000	-0.284015
0.316663	0.050000	0.000000	10	2	0	0.000000	0.000000	0.000000	19.922926	0.000000	1.000000	-0.283296
0.349997	0.050000	0.000000	11	2	0	0.000000	0.000000	0.000000	19.922926	0.000000	1.000000	-0.282685
0.383329	0.050000	0.000000	12	2	0	0.000000	0.000000	0.000000	19.922926	0.000000	1.000000	-0.282281
0.416663	0.050000	0.000000	13	2	0	0.000000	0.000000	0.000000	19.922926	0.000000	1.000000	-0.282704
0.449995	0.050000	0.000000	14	2	0	0.000000	0.000000	0.000000	19.922926	0.000000	1.000000	-0.283785
0.483329	0.050000	0.000000	15	2	0	0.000000	0.000000	0.000000	19.922926	0.000000	1.000000	-0.284844
0.516662	0.050000	0.000000	16	2	0	0.000000	0.000000	0.000000	19.922926	0.000000	1.000000	-0.285524
0.549995	0.050000	0.000000	17	2	0	0.000000	0.000000	0.000000	19.922926	0.000000	1.000000	-0.285819
0.583328	0.050000	0.000000	18	2	0	0.000000	0.000000	0.000000	19.922926	0.000000	1.000000	-0.285857
0.616661	0.050000	0.000000	19	2	0	0.000000	0.000000	0.000000	19.922926	0.000000	1.000000	-0.285746
0.649994	0.050000	0.000000	20	2	0	0.000000	0.000000	0.000000	19.922926	0.000000	1.000000	-0.285548
0.683327	0.050000	0.000000	21	2	0	0.000000	0.000000	0.000000	19.922926	0.000000	1.000000	-0.285271
0.716660	0.050000	0.000000	22	2	0	0.000000	0.000000	0.000000	19.922926	0.000000	1.000000	-0.284908
0.749993	0.050000	0.000000	23	2	0	0.000000	0.000000	0.000000	19.922926	0.000000	1.000000	-0.284444
0.783326	0.050000	0.000000	24	2	0	0.000000	0.000000	0.000000	19.922926	0.000000	1.000000	-0.283877
0.816659	0.050000	0.000000	25	2	0	0.000000	0.000000	0.000000	19.922926	0.000000	1.000000	-0.283217
0.849992	0.050000	0.000000	26	2	0	0.000000	0.000000	0.000000	19.922926	0.000000	1.000000	-0.282483
0.883325	0.050000	0.000000	27	2	0	0.000000	0.000000	0.000000	19.922926	0.000000	1.000000	-0.281652
0.916658	0.050000	0.000000	28	2	0	0.000000	0.000000	0.000000	19.922926	0.000000	1.000000	-0.280525
0.949991	0.050000	0.000000	29	2	0	0.000000	0.000000	0.000000	19.922926	0.000000	1.000000	-0.278525
0.983329	0.050000	0.000000	30	2	0	0.000000	0.000000	0.000000	19.922926	0.000000	1.000000	-0.278288
1.000000	0.050000	0.000000	31	2	0	0.000000	0.000000	0.000000	19.922926	0.000000	1.000000	0.000000
0.000000	0.083333	0.000000	0	3	0	0.000000	0.000000	0.000000	19.922926	0.000000	1.000000	0.000000
0.016667	0.083333	0.000000	1	3	0	0.000000	0.000000	0.000000	19.922926	0.000000	1.000000	-0.286660
0.050000	0.083333	0.000000	2	3	0	0.000000	0.000000	0.000000	19.922926	0.000000	1.000000	-0.286558
0.083333	0.083333	0.000000	3	3	0	0.000000	0.000000	0.000000	19.922926	0.000000	1.000000	-0.286575
0.116666	0.083333	0.000000	4	3	0	0.000000	0.000000	0.000000	19.922926	0.000000	1.000000	-0.286652
0.149999	0.083333	0.000000	5	3	0	0.000000	0.000000	0.000000	19.922926	0.000000	1.000000	-0.286759
0.183332	0.083333	0.000000	6	3	0	0.000000	0.000000	0.000000	19.922926	0.000000	1.000000	-0.286832
0.216665	0.083333	0.000000	7	3	0	0.000000	0.000000	0.000000	19.922926	0.000000	1.000000	-0.286797
0.249998	0.083333	0.000000	8	3	0	0.000000	0.000000	0.000000	19.922926	0.000000	1.000000	-0.286569
0.283331	0.083333	0.000000	9	3	0	0.000000	0.000000	0.000000	19.922926	0.000000	1.000000	-0.286070
0.316663	0.083333	0.000000	10	3	0	0.000000	0.000000	0.000000	19.922926	0.000000	1.000000	-0.285278
0.349997	0.083333	0.000000	11	3	0	0.000000	0.000000	0.000000	19.922926	0.000000	1.000000	-0.284260
0.383329	0.083333	0.000000	12	3	0	0.000000	0.000000	0.000000	19.922926	0.000000	1.000000	-0.283167
0.416663	0.083333	0.000000	13	3	0	0.000000	0.000000	0.000000	19.922926	0.000000	1.000000	-0.282659
0.449995	0.083333	0.000000	14	3	0	0.000000	0.000000	0.000000	19.922926	0.000000	1.000000	-0.283585
0.483329	0.083333	0.000000	15	3	0	0.000000	0.000000	0.000000	19.922926	0.000000	1.000000	-0.284795
0.516662	0.083333	0.000000	16	3	0	0.000000	0.000000	0.000000	19.922926	0.000000	1.000000	-0.285566
0.549995	0.083333	0.000000	17	3	0	0.000000	0.000000	0.000000	19.922926	0.000000	1.000000	-0.285877
0.583328	0.083333	0.000000	18	3	0	0.000000	0.000000	0.000000	19.922926	0.000000	1.000000	-0.285896
0.616661	0.083333	0.000000	19	3	0	0.000000	0.000000	0.000000	19.922926	0.000000	1.000000	-0.285774
0.649994	0.083333	0.000000	20	3	0	0.000000	0.000000	0.000000	19.922926	0.000000	1.000000	-0.285573
0.683327	0.083333	0.000000	21	3	0	0.000000	0.000000	0.000000	19.922926	0.000000	1.000000	-0.285301
0.716660	0.083333	0.000000	22	3	0	0.000000	0.000000	0.000000	19.922926	0.000000	1.000000	-0.284939
0.749993	0.083333	0.000000	23	3	0	0.000000	0.000000	0.000000	19.922926	0.000000	1.000000	-0.284462
0.783326	0.083333	0.000000	24	3	0	0.000000	0.000000	0.000000	19.922926	0.000000	1.000000	-0.283854
0.816659	0.083333	0.000000	25	3	0	0.000000	0.000000	0.000000	19.922926	0.000000	1.000000	-0.283112
0.849992	0.083333	0.000000	26	3	0	0.000000	0.000000	0.000000	19.922926	0.000000	1.000000	-0.282219
0.883325	0.083333	0.000000	27	3	0	0.000000	0.000000	0.000000	19.922926	0.000000	1.000000	-0.281078
0.916658	0.083333	0.000000	28	3	0	0.000000	0.000000	0.000000	19.922926	0.000000	1.000000	-0.279297
0.949991	0.083333	0.000000	29	3	0	0.000000	0.000000	0.000000	19.922926	0.000000	1.000000	-0.275808
0.983329	0.083333	0.000000	30	3	0	0.000000	0.000000	0.000000	19.922926	0.000000	1.000000	-0.274152
1.000000	0.083333	0.000000	31	3	0	0.000000	0.000000	0.000000	19.922926	0.000000	1.000000	0.000000
0.000000	0.116666	0.000000	0	4	0	0.000000	0.000000	0.000000	19.922926	0.000000	1.000000	0.000000
0.016667	0.116666	0.000000	1	4	0	0.000000	0.000000	0.000000	19.922926	0.000000	1.000000	-0.287621
0.050000	0.116666	0.000000	2	4	0	0.000000	0.000000	0.000000	19.922926	0.000000	1.000000	-0.287514
0.083333	0.116666	0.000000	3	4	0	0.000000	0.000000	0.000000	19.922926	0.000000	1.000000	-0.287559
0.116666	0.116666	0.000000	4	4	0	0.000000	0.000000	0.000000	19.922926	0.000000	1.000000	-0.287683
0.149999	0.116666	0.000000	5	4	0	0.000000	0.000000	0.000000	19.922926	0.000000	1.000000	-0.287833
0.183332	0.116666	0.000000	6	4	0	0.000000	0.000000	0.000000	19.922926	0.000000	1.000000	-0.287948
0.216665	0.116666	0.000000	7	4	0	0.000000	0.000000	0.000000	19.922926	0.000000	1.000000	-0.287970
0.249998	0.116666	0.000000	8	4	0	0.000000	0.000000	0.000000	19.922926	0.000000	1.000000	-0.287851
0.283331	0.116666	0.000000	9	4	0	0.000000	0.000000	0.000000	19.922926	0.000000	1.000000	-0.287530
0.316663	0.116666	0.000000	10	4	0	0.000000	0.000000	0.000000	19.922926	0.000000	1.000000	-0.286920
0.349997	0.116666	0.000000	11	4	0	0.000000	0.000000	0.000000	19.922926	0.000000	1.000000	-0.285923
0.383329	0.116666	0.000000	12	4	0	0.000000	0.000000	0.000000	19.922926	0.000000	1.000000	-0.284523
0.416663	0.116666	0.000000	13	4	0	0.000000	0.000000	0.000000	19.922926	0.000000	1.000000	-0.283086
0.449995	0.116666	0.000000	14	4	0	0.000000	0.000000	0.000000	19.922926	0.000000	1.000000	-0.283159
0.483329	0.116666	0.000000	15	4	0	0.000000	0.000000	0.000000	19.922926	0.000000	1.000000	-0.284503
0.516662	0.116666	0.000000	16	4	0	0.000000	0.000000	0.000000	19.922926	0.000000	1.000000	-0.285475
0.549995	0.116666	0.000000	17	4	0	0.000000	0.000000	0.000000	19.922926	0.000000	1.000000	-0.285880
0.583328	0.116666	0.000000	18	4	0	0.000000	0.000000	0.000000	19.922926	0.000000	1.000000	-0.285932
0.616661	0.116666	0.000000	19	4	0	0.000000	0.000000	0.000000	19.922926	0.000000	1.000000	-0.285811
0.649994	0.116666	0.000000	20	4	0	0.000000	0.000000	0.000000	19.922926	0.000000	1.000000	-0.285613
0.683327	0.116666	0.000000	21	4	0	0.000000	0.000000	0.000000	19.922926	0.000000	1.000000	-0.285345
0.716660	0.116666	0.000000	22	4	0	0.000000	0.000000	0.000000	19.922926	0.000000	1.000000	-0.284983
0.749993	0.116666	0.000000	23	4	0	0.000000	0.000000	0.000000	19.922926	0.000000	1.000000	-0.284483
0.783326	0.116666	0.000000	24	4	0	0.000000	0.000000	0.000000	19.922926	0.000000	1.000000	-0.283805
0.816659	0.116666	0.000000	25	4	0	0.000000	0.000000	0.000000	19.922926	0.000000	1.000000	-0.282918
0.849992	0.116666	0.000000	26	4	0	0.000000	0.000000	0.000000	19.922926	0.000000	1.000000	-0.281761
0.883325	0.116666	0.000000	27	4	0	0.000000	0.000000	0.000000	19.922926	0.000000	1.000000	-0.280170
0.916658	0.116666	0.000000	28	4	0	0.000000	0.000000	0.000000	19.922926	0.000000	1.000000	-0.277722
0.949991	0.116666	0.000000	29	4	0	0.000000	0.000000	0.000000	19.922926	0.000000	1.000000	-0.273511
0.983329	0.116666	0.000000	30	4	0	0.000000	0.000000	0.000000	19.922926	0.000000	1.000000	-0.271602
1.000000	0.116666	0.000000	31	4	0	0.000000	0.000000	0.000000	19.922926	0.000000	1.000000	0.000000
0.000000	0.149999	0.000000	0	5	0	0.000000	0.000000	0.000000	19.922926	0.000000	1.000000	0.000000
0.016667	0.149999	0.000000	1	5	0	0.000000	0.000000	0.000000	19.922926	0.000000	1.000000	-0.287994
0.050000	0.149999	0.000000	2	5	0	0.000000	0.000000	0.000000	19.922926	0.000000	1.000000	-0.287829
0.083333	0.149999	0.000000	3	5	0	0.000000	0.000000	0.000000	19.922926	0.000000	1.000000	-0.287852
0.116666	0.149999	0.000000	4	5	0	0.000000	0.000000	0.000000	19.922926	0.000000	1.000000	-0.287986
0.149999	0.149999	0.000000	5	5	0	0.000000	0.000000	0.000000	19.922926	0.000000	1.000000	-0.288160
0.183332	0.149999	0.000000	6	5	0	0.000000	0.000000	0.000000	19.922926	0.000000	1.000000	-0.288313
0.216665	0.149999	0.000000	7	5	0	0.000000	0.000000	0.000000	19.922926	0.000000	1.000000	-0.288403
0.249998	0.149999	0.000000	8	5	0	0.000000	0.000000	0.000000	19.922926	0.000000	1.000000	-0.288405
0.283331	0.149999	0.000000	9	5	0	0.000000	0.000000	0.000000	19.922926	0.000000	1.000000	-0.288280
0.316663	0.149999	0.000000	10	5	0	0.000000	0.000000	0.000000	19.922926	0.000000	1.000000	-0.287914
0.349997	0.149999	0.000000	11	5	0	0.000000	0.000000	0.000000	19.922926	0.000000	1.000000	-0.287195
0.383329	0.149999	0.000000	12	5	0	0.000000	0.000000	0.000000	19.922926	0.000000	1.000000	-0.285919
0.416663	0.149999	0.000000	13	5	0	0.000000	0.000000	0.000000	19.922926	0.000000	1.000000	-0.284178
0.449995	0.149999	0.000000	14	5	0	0.000000	0.000000	0.000000	19.922926	0.000000	1.000000	-0.282934
0.483329	0.149999	0.000000	15	5	0	0.000000	0.000000	0.000000	19.922926	0.000000	1.000000	-0.283983
0.516662	0.149999	0.000000	16	5	0	0.000000	0.000000	0.000000	19.922926	0.000000	1.000000	-0.285212
0.549995	0.149999	0.000000	17	5	0	0.000000	0.000000	0.000000	19.922926	0.000000	1.000000	-0.285815
0.583328	0.149999	0.000000	18	5	0	0.000000	0.000000	0.000000	19.922926	0.000000	1.000000	-0.285965
0.616661	0.149999	0.000000	19	5	0	0.000000	0.000000	0.000000	19.922926	0.000000	1.000000	-0.285865
0.649994	0.149999	0.000000	20	5	0	0.000000	0.000000	0.000000	19.922926	0.000000	1.000000	-0.285675
0.683327	0.149999	0.000000	21	5	0	0.000000	0.000000	0.000000	19.922926	0.000000	1.000000	-0.285415
0.716660	0.149999	0.000000	22	5	0	0.000000	0.000000	0.000000	19.922926	0.000000	1.000000	-0.285059
0.749993	0.149999	0.000000	23	5	0	0.000000	0.000000	0.000000	19.922926	0.000000	1.000000	-0.284552
0.783326	0.149999	0.000000	24	5	0	0.000000	0.000000	0.000000	19.922926	0.000000	1.000000	-0.283835
0.816659	0.149999	0.000000	25	5	0	0.000000	0.000000	0.000000	19.922926	0.000000	1.000000	-0.282864
0.849992	0.149999	0.000000	26	5	0	0.000000	0.000000	0.000000	19.922926	0.000000	1.000000	-0.281558
0.883325	0.149999	0.000000	27	5	0	0.000000	0.000000	0.000000	19.922926	0.000000	1.000000	-0.279702
0.916658	0.149999	0.000000	28	5	0	0.000000	0.000000	0.000000	19.922926	0.000000	1.000000	-0.276910
0.949991	0.149999	0.000000	29	5	0	0.000000	0.000000	0.000000	19.922926	0.000000	1.000000	-0.272758
0.983329	0.149999	0.000000	30	5	0	0.000000	0.000000	0.000000	19.922926	0.000000	1.000000	-0.271302
1.000000	0.149999	0.000000	31	5	0	0.000000	0.000000	0.000000	19.922926	0.000000	1.000000	0.000000
0.000000	0.183332	0.000000	0	6	0	0.000000	0.000000	0.000000	19.922926	0.000000	1.000000	0.000000
0.016667	0.183332	0.000000	1	6	0	0.000000	0.000000	0.000000	19.922926	0.000000	1.000000	-0.287966
0.050000	0.183332	0.000000	2	6	0	0.000000	0.000000	0.000000	19.922926	0.000000	1.000000	-0.287756
0.083333	0.183332	0.000000	3	6	0	0.000000	0.000000	0.000000	19.922926	0.000000	1.000000	-0.287766
0.116666	0.183332	0.000000	4	6	0	0.000000	0.000000	0.000000	19.922926	0.000000	1.000000	-0.287906
0.149999	0.183332	0.000000	5	6	0	0.000000	0.000000	0.000000	19.922926	0.000000	1.000000	-0.288101
0.183332	0.183332	0.000000	6	6	0	0.000000	0.000000	0.000000	19.922926	0.000000	1.000000	-0.288286
0.216665	0.183332	0.000000	7	6	0	0.000000	0.000000	0.000000	19.922926	0.000000	1.000000	-0.288424
0.249998	0.183332	0.000000	8	6	0	0.000000	0.000000	0.000000	19.922926	0.000000	1.000000	-0.288501
0.283331	0.183332	0.000000	9	6	0	0.000000	0.000000	0.000000	19.922926	0.000000	1.000000	-0.288506
0.316663	0.183332	0.000000	10	6	0	0.000000	0.000000	0.000000	19.922926	0.000000	1.000000	-0.288389
0.349997	0.183332	0.000000	11	6	0	0.000000	0.000000	0.000000	19.922926	0.000000	1.000000	-0.287960
0.383329	0.183332	0.000000	12	6	0	0.000000	0.000000	0.000000	19.922926	0.000000	1.000000	-0.287013
0.416663	0.183332	0.000000	13	6	0	0.000000	0.000000	0.000000	19.922926	0.000000	1.000000	-0.285340
0.449995	0.183332	0.000000	14	6	0	0.000000	0.000000	0.000000	19.922926	0.000000	1.000000	-0.283317
0.483329	0.183332	0.000000	15	6	0	0.000000	0.000000	0.000000	19.922926	0.000000	1.000000	-0.283259
0.516662	0.183332	0.000000	16	6	0	0.000000	0.000000	0.000000	19.922926	0.000000	1.000000	-0.284719
0.549995	0.183332	0.000000	17	6	0	0.000000	0.000000	0.000000	19.922926	0.000000	1.000000	-0.285639
0.583328	0.183332	0.000000	18	6	0	0.000000	0.000000	0.000000	19.922926	0.000000	1.000000	-0.285960
0.616661	0.183332	0.000000	19	6	0	0.000000	0.000000	0.000000	19.922926	0.000000	1.000000	-0.285922
0.649994	0.183332	0.000000	20	6	0	0.000000	0.000000	0.000000	19.922926	0.000000	1.000000	-0.285746
0.683327	0.183332	0.000000	21	6	0	0.000000	0.000000	0.000000	19.922926	0.000000	1.000000	-0.285495
0.716660	0.183332	0.000000	22	6	0	0.000000	0.000000	0.000000	19.922926	0.000000	1.000000	-0.285152
0.749993	0.183332	0.000000	23	6	0	0.000000	0.000000	0.000000	19.922926	0.000000	1.000000	-0.284672
0.783326	0.183332	0.000000	24	6	0	0.000000	0.000000	0.000000	19.922926	0.000000	1.000000	-0.284006
0.816659	0.183332	0.000000	25	6	0	0.000000	0.000000	0.000000	19.922926	0.000000	1.000000	-0.283127
0.849992	0.183332	0.000000	26	6	0	0.000000	0.000000	0.000000	19.922926	0.000000	1.000000	-0.281981
0.883325	0.183332	0.000000	27	6	0	0.000000	0.000000	0.000000	19.922926	0.000000	1.000000	-0.280414
0.916658	0.183332	0.000000	28	6	0	0.000000	0.000000	0.000000	19.922926	0.000000	1.000000	-0.278188
0.949991	0.183332	0.000000	29	6	0	0.000000	0.000000	0.000000	19.922926	0.000000	1.000000	-0.275181
0.983329	0.183332	0.000000	30	6	0	0.000000	0.000000	0.000000	19.922926	0.000000	1.000000	-0.274530
1.000000	0.183332	0.000000	31	6	0	0.000000	0.000000	0.000000	19.922926	0.000000	1.000000	0.000000
0.000000	0.216665	0.000000	0	7	0	0.000000	0.000000	0.000000	19.922926	0.000000	1.000000	0.000000
0.016667	0.216665	0.000000	1	7	0	0.000000	0.000000	0.000000	19.922926	0.000000	1.000000	-0.287720
0.050000	0.216665	0.000000	2	7	0	0.000000	0.000000	0.000000	19.922926	0.000000	1.000000	-0.287484
0.083333	0.216665	0.000000	3	7	0	0.000000	0.000000	0.000000	19.922926	0.000000	1.000000	-0.287497
0.116666	0.216665	0.000000	4	7	0	0.000000	0.000000	0.000000	19.922926	0.000000	1.000000	-0.287655
0.149999	0.216665	0.000000	5	7	0	0.000000	0.000000	0.000000	19.922926	0.000000	1.000000	-0.287880
0.183332	0.216665	0.000000	6	7	0	0.000000	0.000000	0.000000	19.922926	0.000000	1.000000	-0.288106
0.216665	0.216665	0.000000	7	7	0	0.000000	0.000000	0.000000	19.922926	0.000000	1.000000	-0.288293
0.249998	0.216665	0.000000	8	7	0	0.000000	0.000000	0.000000	19.922926	0.000000	1.000000	-0.288429
0.283331	0.216665	0.000000	9	7	0	0.000000	0.000000	0.000000	19.922926	0.000000	1.000000	-0.288511
0.316663	0.216665	0.000000	10	7	0	0.000000	0.000000	0.000000	19.922926	0.000000	1.000000	-0.288520
0.349997	0.216665	0.000000	11	7	0	0.000000	0.000000	0.000000	19.922926	0.000000	1.000000	-0.288359
0.383329	0.216665	0.000000	12	7	0	0.000000	0.000000	0.000000	19.922926	0.000000	1.000000	-0.287744
0.416663	0.216665	0.000000	13	7	0	0.000000	0.000000	0.000000	19.922926	0.000000	1.000000	-0.286454
0.449995	0.216665	0.000000	14	7	0	0.000000	0.000000	0.000000	19.922926	0.000000	1.000000	-0.284499
0.483329	0.216665	0.000000	15	7	0	0.000000	0.000000	0.000000	19.922926	0.000000	1.000000	-0.282962
0.516662	0.216665	0.000000	16	7	0	0.000000	0.000000	0.000000	19.922926	0.000000	1.000000	-0.284035
0.549995	0.216665	0.000000	17	7	0	0.000000	0.000000	0.000000	19.922926	0.000000	1.000000	-0.285283
0.583328	0.216665	0.000000	18	7	0	0.000000	0.000000	0.000000	19.922926	0.000000	1.000000	-0.285872
0.616661	0.216665	0.000000	19	7	0	0.000000	0.000000	0.000000	19.922926	0.000000	1.000000	-0.285977
0.649994	0.216665	0.000000	20	7	0	0.000000	0.000000	0.000000	19.922926	0.000000	1.000000	-0.285832
0.683327	0.216665	0.000000	21	7	0	0.000000	0.000000	0.000000	19.922926	0.000000	1.000000	-0.285592
0.716660	0.216665	0.000000	22	7	0	0.000000	0.000000	0.000000	19.922926	0.000000	1.000000	-0.285274
0.749993	0.216665	0.000000	23	7	0	0.000000	0.000000	0.000000	19.922926	0.000000	1.000000	-0.284849
0.783326	0.216665	0.000000	24	7	0	0.000000	0.000000	0.000000	19.922926	0.000000	1.000000	-0.284291
0.816659	0.216665	0.000000	25	7	0	0.000000	0.000000	0.000000	19.922926	0.000000	1.000000	-0.283599
0.849992	0.216665	0.000000	26	7	0	0.000000	0.000000	0.000000	19.922926	0.000000	1.000000	-0.282763
0.883325	0.216665	0.000000	27	7	0	0.000000	0.000000	0.000000	19.922926	0.000000	1.000000	-0.281760
0.916658	0.216665	0.000000	28	7	0	0.000000	0.000000	0.000000	19.922926	0.000000	1.000000	-0.280559
0.949991	0.216665	0.000000	29	7	0	0.000000	0.000000	0.000000	19.922926	0.000000	1.000000	-0.279280
0.983329	0.216665	0.000000	30	7	0	0.000000	0.000000	0.000000	19.922926	0.000000	1.000000	-0.279629
1.000000	0.216665	0.000000	31	7	0	0.000000	0.000000	0.000000	19.922926	0.000000	1.000000	0.000000
0.000000	0.249998	0.000000	0	8	0	0.000000	0.000000	0.000000	19.922926	0.000000	1.000000	0.000000
0.016667	0.249998	0.000000	1	8	0	0.000000	0.000000	0.000000	19.922926	0.000000	1.000000	-0.287336
0.050000	0.249998	0.000000	2	8	0	0.000000	0.000000	0.000000	19.922926	0.000000	1.000000	-0.287093
0.083333	0.249998	0.000000	3	8	0	0.000000	0.000000	0.000000	19.922926	0.000000	1.000000	-0.287121
0.116666	0.249998	0.000000	4	8	0	0.000000	0.000000	0.000000	19.922926	0.000000	1.000000	-0.287306
0.149999	0.249998	0.000000	5	8	0	0.000000	0.000000	0.000000	19.922926	0.000000	1.000000	-0.287569
0.183332	0.249998	0.000000	6	8	0	0.000000	0.000000	0.000000	19.922926	0.000000	1.000000	-0.287843
0.216665	0.249998	0.000000	7	8	0	0.000000	0.000000	0.000000	19.922926	0.000000	1.000000	-0.288085
0.249998	0.249998	0.000000	8	8	0	0.000000	0.000000	0.000000	19.922926	0.000000	1.000000	-0.288280
0.283331	0.249998	0.000000	9	8	0	0.000000	0.000000	0.000000	19.922926	0.000000	1.000000	-0.288422
0.316663	0.249998	0.000000	10	8	0	0.000000	0.000000	0.000000	19.922926	0.000000	1.000000	-0.288505
0.349997	0.249998	0.000000	11	8	0	0.000000	0.000000	0.000000	19.922926	0.000000	1.000000	-0.288482
0.383329	0.249998	0.000000	12	8	0	0.000000	0.000000	0.000000	19.922926	0.000000	1.000000	-0.288171
0.416663	0.249998	0.000000	13	8	0	0.000000	0.000000	0.000000	19.922926	0.000000	1.000000	-0.287262
0.449995	0.249998	0.000000	14	8	0	0.000000	0.000000	0.000000	19.922926	0.000000	1.000000	-0.285556
0.483329	0.249998	0.000000	15	8	0	0.000000	0.000000	0.000000	19.922926	0.000000	1.000000	-0.283383
0.516662	0.249998	0.000000	16	8	0	0.000000	0.000000	0.000000	19.922926	0.000000	1.000000	-0.283192
0.549995	0.249998	0.000000	17	8	0	0.000000	0.000000	0.000000	19.922926	0.000000	1.000000	-0.284636
0.583328	0.249998	0.000000	18	8	0	0.000000	0.000000	0.000000	19.922926	0.000000	1.000000	-0.285627
0.616661	0.249998	0.000000	19	8	0	0.000000	0.000000	0.000000	19.922926	0.000000	1.000000	-0.285974
0.649994	0.249998	0.000000	20	8	0	0.000000	0.000000	0.000000	19.922926	0.000000	1.000000	-0.285925
0.683327	0.249998	0.000000	21	8	0	0.000000	0.000000	0.000000	19.922926	0.000000	1.000000	-0.285714
0.716660	0.249998	0.000000	22	8	0	0.000000	0.000000	0.000000	19.922926	0.000000	1.000000	-0.285429
0.749993	0.249998	0.000000	23	8	0	0.000000	0.000000	0.000000	19.922926	0.000000	1.000000	-0.285073
0.783326	0.249998	0.000000	24	8	0	0.000000	0.000000	0.000000	19.922926	0.000000	1.000000	-0.284641
0.816659	0.249998	0.000000	25	8	0	0.000000	0.000000	0.000000	19.922926	0.000000	1.000000	-0.284145
0.849992	0.249998	0.000000	26	8	0	0.000000	0.000000	0.000000	19.922926	0.000000	1.000000	-0.283598
0.883325	0.249998	0.000000	27	8	0	0.000000	0.000000	0.000000	19.922926	0.000000	1.000000	-0.283025
0.916658	0.249998	0.000000	28	8	0	0.000000	0.000000	0.000000	19.922926	0.000000	1.000000	-0.282481
0.949991	0.249998	0.000000	29	8	0	0.000000	0.000000	0.000000	19.922926	0.000000	1.000000	-0.282116
0.983329	0.249998	0.000000	30	8	0	0.000000	0.000000	0.000000	19.922926	0.000000	1.000000	-0.282703
1.000000	0.249998	0.000000	31	8	0	0.000000	0.000000	0.000000	19.922926	0.000000	1.000000	0.000000
0.000000	0.283331	0.000000	0	9	0	0.000000	0.000000	0.000000	19.922926	0.000000	1.000000	0.000000
0.016667	0.283331	0.000000	1	9	0	0.000000	0.000000	0.000000	19.922926	0.000000	1.000000	-0.286834
0.050000	0.283331	0.000000	2	9	0	0.000000	0.000000	0.000000	19.922926	0.000000	1.000000	-0.286591
0.083333	0.283331	0.000000	3	9	0	0.000000	0.000000	0.000000	19.922926	0.000000	1.000000	-0.286639
0.116666	0.283331	0.000000	4	9	0	0.000000	0.000000	0.000000	19.922926	0.000000	1.000000	-0.286852
0.149999	0.283331	0.000000	5	9	0	0.000000	0.000000	0.000000	19.922926	0.000000	1.000000	-0.287158
0.183332	0.283331	0.000000	6	9	0	0.000000	0.000000	0.000000	19.922926	0.000000	1.000000	-0.287489
0.216665	0.283331	0.000000	7	9	0	0.000000	0.000000	0.000000	19.922926	0.000000	1.000000	-0.287799
0.249998	0.283331	0.000000	8	9	0	0.000000	0.000000	0.000000	19.922926	0.000000	1.000000	-0.288062
0.283331	0.283331	0.000000	9	9	0	0.000000	0.000000	0.000000	19.922926	0.000000	1.000000	-0.288268
0.316663	0.283331	0.000000	10	9	0	0.000000	0.000000	0.000000	19.922926	0.000000	1.000000	-0.288411
0.349997	0.283331	0.000000	11	9	0	0.000000	0.000000	0.000000	19.922926	0.000000	1.000000	-0.288468
0.383329	0.283331	0.000000	12	9	0	0.000000	0.000000	0.000000	19.922926	0.000000	1.000000	-0.288354
0.416663	0.283331	0.000000	13	9	0	0.000000	0.000000	0.000000	19.922926	0.000000	1.000000	-0.287782