VARIABLES = "X"
 "Y"
 "Z"
 "I"
 "J"
 "K"
 "U"
 "V"
 "W"
 "T"
 "Xi"
 "FlagP"
 "P"
ZONE
DT=(DOUBLE,DOUBLE,DOUBLE,DOUBLE,DOUBLE,DOUBLE,DOUBLE,DOUBLE,DOUBLE,DOUBLE,DOUBLE,DOUBLE,DOUBLE)
                      0                     0.5                     0.5                       0        15.5001354217529        15.5001350058562                       0                       0                       0        13.1122899320232                       0                       1    -0.00481632713601286 
     0.0101010101010101                     0.5                     0.5       0.606048518299118        15.5001354217529        15.5001350058562    0.000887528447359765      0.0261327794445458      -0.128125904439572        13.8981650924201                       0      -0.212097036598237    -0.00481632713601286 
     0.0202020202020202                     0.5                     0.5        1.10605168869933        15.5001354217529        15.5001350058562     0.00165120545268098      0.0408688830993442      -0.200188364963812        14.5825655117838                       0                      -1    -0.00483462379662715 
     0.0303030303030303                     0.5                     0.5        1.40908500698703        15.5001354217529        15.5001350058562     0.00218470635691191      0.0344371494278473      -0.168116854591169         15.081881262562                       0                      -1    -0.00488690488566526 
     0.0404040404040404                     0.5                     0.5        1.71211832527472        15.5001354217529        15.5001350058562     0.00271814042322652       0.028005174585962      -0.136045268243002        15.5812109964096                       0                      -1    -0.00493918489521411 
     0.0505050505050505                     0.5                     0.5        2.01515164440909        15.5001354217529        15.5001350058562     0.00321728004905413      0.0218074682188733      -0.105153768281203        16.0623669657487                       0                      -1    -0.00499057557950492 
     0.0606060606060606                     0.5                     0.5        2.31818497963026        15.5001354217529        15.5001350058562     0.00306355437141165      0.0200562875403629     -0.0966825009408716        16.1984865519518                       0                      -1    -0.00502504854732634 
     0.0707070707070707                     0.5                     0.5        2.62121831485144        15.5001354217529        15.5001350058562     0.00290991358216879      0.0183052727096528      -0.088210848006545        16.3346074828368                       0                      -1    -0.00505951982742026 
     0.0808080808080808                     0.5                     0.5        2.92425165007261        15.5001354217529        15.5001350058562     0.00275618790452631      0.0165540920311423     -0.0797395806662133        16.4707270690399                       0                      -1    -0.00509399279524167 
     0.0909090909090909                     0.5                     0.5        3.22728501069511        15.5001354217529        15.5001350058562     0.00217227161020016      0.0178758493282074     -0.0708852215805598        16.5440739478589                       0                      -1    -0.00511897428221753 
      0.101010101010101                     0.5                     0.5        3.53031837978324        15.5001354217529        15.5001350058562     0.00144514941965148        0.02022206914552     -0.0619033313408692        16.5964979511715                       0                      -1     -0.0051407931732794 
      0.111111111111111                     0.5                     0.5        3.83335174887137        15.5001354217529        15.5001350058562    0.000717861448899291      0.0225679591224372     -0.0529212974440466        16.6489242707258                       0                      -1    -0.00516261138921256 
      0.121212121212121                     0.5                     0.5         4.1363851179595        15.5001354217529        15.5001350058562  -6.11854006619649E-005      0.0244265969011681     -0.0461089101475189        16.6814485207691                       0                      -1    -0.00517859900963167 
      0.131313131313131                     0.5                     0.5        4.43941848704763        15.5001354217529        15.5001350058562   -0.000903476149286107      0.0256898638073201      -0.041947602506278         16.689654537801                       0                      -1    -0.00518746225636551 
      0.141414141414141                     0.5                     0.5        4.74245185613575        15.5001354217529        15.5001350058562    -0.00174560502640161      0.0269533176937632     -0.0377866461718729        16.6978624204439                       0                      -1    -0.00519632476032574 
      0.151515151515152                     0.5                     0.5        5.04548521505704        15.5001354217529        15.5001350058562    -0.00254349757903291      0.0280197122879786     -0.0337849432372994        16.7055459915884                       0                      -1     -0.0052030728910907 
      0.161616161616162                     0.5                     0.5        5.34851851641126        15.5001354217529        15.5001350058562    -0.00308999700537769      0.0279713691125567     -0.0306869600436275        16.7102713500845                       0                      -1    -0.00519784473309022 
      0.171717171717172                     0.5                     0.5        5.65155181776549        15.5001354217529        15.5001350058562    -0.00363636737130211      0.0279230398259641     -0.0275890977738772          16.71500003578                       0                      -1     -0.0051926167775215 
      0.181818181818182                     0.5                     0.5        5.95458511911971        15.5001354217529        15.5001350058562    -0.00418286679764689      0.0278746966505421     -0.0244911145802052        16.7197253942761                       0                      -1    -0.00518738861952102 
      0.191919191919192                     0.5                     0.5        6.25761842047393        15.5001354217529        15.5001350058562    -0.00484958679967657      0.0273436284218849     -0.0218308379527868        16.7157722086469                       0                      -1    -0.00517591357212931 
      0.202020202020202                     0.5                     0.5        6.56065172182815        15.5001354217529        15.5001350058562    -0.00553737725539059      0.0267272593128016     -0.0192476156304515        16.7102903856237                       0                      -1    -0.00516333781682934 
      0.212121212121212                     0.5                     0.5        6.86368502318237        15.5001354217529        15.5001350058562     -0.0062252906298276      0.0261110927408259     -0.0166645011544442        16.7048072820369                       0                      -1     -0.0051507615215647 
      0.222222222222222                     0.5                     0.5        7.16671832453659        15.5001354217529        15.5001350058562    -0.00725962102201307       0.025314510181723     -0.0146555226901902        16.6938654036581                       0                      -1    -0.00513639331090578 
      0.232323232323232                     0.5                     0.5        7.46975162589082        15.5001354217529        15.5001350058562    -0.00857719459022534      0.0243704129377697     -0.0131159787488049        16.6784602321093                       0                      -1    -0.00512055996492891 
      0.242424242424242                     0.5                     0.5        7.77278492724504        15.5001354217529        15.5001350058562    -0.00989466770539452      0.0234261499618171     -0.0115764113110038        16.6630537833444                       0                      -1     -0.0051047258762413 
      0.252525252525253                     0.5                     0.5        8.07581822859926        15.5001354217529        15.5001350058562     -0.0112402306816909      0.0224422229013414     -0.0101065904671091        16.6471663314604                       0                      -1    -0.00508872205710757 
      0.262626262626263                     0.5                     0.5        8.37885152995348        15.5001354217529        15.5001350058562     -0.0126696734255799      0.0213389322679337    -0.00884571856546374        16.6298335627512                       0                      -1    -0.00507220735726011 
      0.272727272727273                     0.5                     0.5         8.6818848313077        15.5001354217529        15.5001350058562     -0.0140991187206119      0.0202354811164644    -0.00758520685068077        16.6124976329323                       0                      -1    -0.00505569076719054 
      0.282828282828283                     0.5                     0.5        8.98491813266192        15.5001354217529        15.5001350058562     -0.0155285614645009      0.0191321904830567    -0.00632433494903536        16.5951648642231                       0                      -1    -0.00503917606734309 
      0.292929292929293                     0.5                     0.5        9.28796018762275        15.5001354217529        15.5001350058562       -0.01640013893792      0.0183057165537875    -0.00421132063075164        16.5840682203676                       0                      -1    -0.00502345263613424 
      0.303030303030303                     0.5                     0.5        9.59100270106622        15.5001354217529        15.5001350058562     -0.0172424401746372      0.0174934505077012    -0.00205410359570007        16.5732944655649                       0                      -1     -0.0050077666661252 
      0.313131313131313                     0.5                     0.5        9.89404521450968        15.5001354217529        15.5001350058562     -0.0180847986582968      0.0166814752484006    0.000103542897883623        16.5625244476492                       0                      -1    -0.00499208467874065 
      0.323232323232323                     0.5                     0.5        10.1970757459079        15.5001354217529        15.5001350058562     -0.0186982647974838      0.0162128188159991     0.00256157442646049        16.5568363536618                       0                      -1    -0.00498226598093971 
      0.333333333333333                     0.5                     0.5         10.500099835733        15.5001354217529        15.5001350058562     -0.0191884312811917      0.0159285428723166     0.00518112282573853         16.553879483551                       0                      -1    -0.00497559470344312 
      0.343434343434343                     0.5                     0.5         10.803123925558        15.5001354217529        15.5001350058562      -0.019678807467746      0.0156444271556292     0.00780064637144883        16.5509233185713                       0                      -1    -0.00496892741931327 
      0.353535353535354                     0.5                     0.5        11.1061544690961        15.5001354217529        15.5001350058562      -0.020229785861949      0.0154314004044872      0.0101080516175391        16.5487314513699                       0                      -1    -0.00496618841714021 
      0.363636363636364                     0.5                     0.5        11.4091969825396        15.5001354217529        15.5001350058562     -0.0208930965751307      0.0153501722565659      0.0118365693215183        16.5479569210201                       0                      -1    -0.00497073401889701 
      0.373737373737374                     0.5                     0.5         11.712239495983        15.5001354217529        15.5001350058562     -0.0215561716386525      0.0152688878074734      0.0135652566482097        16.5471822165981                       0                      -1    -0.00497527692039039 
      0.383838383838384                     0.5                     0.5        12.0152810940113        15.5001354217529        15.5001350058562     -0.0222218095675062      0.0151880997618429      0.0152219640859257        16.5465042796707                       0                      -1    -0.00497978432140072 
      0.393939393939394                     0.5                     0.5        12.3183054547557        15.5001354217529        15.5001350058562     -0.0229312690080497      0.0151155988500226      0.0155264829575467        16.5476451985705                       0                      -1    -0.00498357240168899 
      0.404040404040404                     0.5                     0.5        12.6213298155001        15.5001354217529        15.5001350058562     -0.0236407783275231      0.0150430632957187      0.0158309229022886        16.5487858573919                       0                      -1    -0.00498736169700778 
      0.414141414141414                     0.5                     0.5        12.9243541762444        15.5001354217529        15.5001350058562     -0.0243502377680667      0.0149705623838984      0.0161354417739095        16.5499267762917                       0                      -1    -0.00499114977729605 
      0.424242424242424                     0.5                     0.5        13.2273919548062        15.5001354217529        15.5001350058562     -0.0247496669814774      0.0147890282041561      0.0156546736606051        16.5527989220637                       0                      -1    -0.00498237482857917 
      0.434343434343434                     0.5                     0.5        13.5304341972979        15.5001354217529        15.5001350058562     -0.0250461999571617      0.0145712286612692      0.0149123586156581         16.556247349798                       0                      -1    -0.00496942417430971 
      0.444444444444444                     0.5                     0.5        13.8334764397895        15.5001354217529        15.5001350058562     -0.0253424862256351      0.0143534205592916      0.0141703359369673        16.5596954517908                       0                      -1    -0.00495646967245407 
      0.454545454545455                     0.5                     0.5        14.1365106266631        15.5001354217529        15.5001350058562     -0.0253435898444888       0.013968630820424      0.0134289214929863        16.5638012954112                       0                      -1    -0.00493651906163964 
      0.464646464646465                     0.5                     0.5        14.4395349874075        15.5001354217529        15.5001350058562     -0.0249846338370287      0.0133801592396277      0.0126882489651125        16.5687094429779                       0                      -1    -0.00490803469594294 
      0.474747474747475                     0.5                     0.5        14.7425593481518        15.5001354217529        15.5001350058562     -0.0246259767151329      0.0127916760426443      0.0119472682747683        16.5736184346402                       0                      -1    -0.00487955397552643 
      0.484848484848485                     0.5                     0.5        15.0455850538249        15.5001354217529        15.5001350058562     -0.0241893052503542      0.0121371591539696      0.0113230737406671           16.5784709147                       0                      -1    -0.00485101232918398 
      0.494949494949495                     0.5                     0.5        15.3486183551791        15.5001354217529        15.5001350058562     -0.0233137243928281      0.0111096417455158      0.0113567056838077        16.5830090043865                       0                      -1    -0.00482214718203084 
      0.505050505050505                     0.5                     0.5        15.6516516565333        15.5001354217529        15.5001350058562     -0.0224383828239554      0.0100820139766196      0.0113902033469323        16.5875478761104                       0                      -1    -0.00479328466768484 
      0.515151515151515                     0.5                     0.5        15.9546849578875        15.5001354217529        15.5001350058562     -0.0215628019664294      0.0090544965681658      0.0114238352900729         16.592085965797                       0                      -1    -0.00476441952053171 
      0.525252525252525                     0.5                     0.5        16.2577182592418        15.5001354217529        15.5001350058562      -0.020443211723068     0.00784301066489632      0.0116613772727129        16.5953516561266                       0                      -1     -0.0047436721703295 
      0.535353535353535                     0.5                     0.5         16.560751560596        15.5001354217529        15.5001350058562      -0.019280856354636     0.00659903349638191      0.0119347849717164        16.5983937609588                       0                      -1    -0.00472435346904434 
      0.545454545454545                     0.5                     0.5        16.8637848619502        15.5001354217529        15.5001350058562     -0.0181183615238096     0.00535520009816015      0.0122081808052021        16.6014357231342                       0                      -1    -0.00470503348495804 
      0.555555555555556                     0.5                     0.5        17.1668181633044        15.5001354217529        15.5001350058562     -0.0168169069204922     0.00404217306729594       0.012131648038414        16.6036432572219                       0                      -1     -0.0046917608315688 
      0.565656565656566                     0.5                     0.5        17.4698514646587        15.5001354217529        15.5001350058562     -0.0154019849092003      0.0026726460724239      0.0117693815622402         16.605169440221                       0                      -1    -0.00468342611760665 
      0.575757575757576                     0.5                     0.5        17.7728847660129        15.5001354217529        15.5001350058562     -0.0139871140783109      0.0013030076416437      0.0114071321618755        16.6066948118274                       0                      -1    -0.00467509099890674 
      0.585858585858586                     0.5                     0.5        18.0759180673671        15.5001354217529        15.5001350058562      -0.012496888919398  -9.96156403896503E-005      0.0108370832998082        16.6077368485972                       0                      -1    -0.00466990712968119 
      0.595959595959596                     0.5                     0.5        18.3789513687213        15.5001354217529        15.5001350058562     -0.0107813881102344    -0.00160124922739292     0.00964543609063816        16.6073305215196                       0                      -1    -0.00467414927542719 
      0.606060606060606                     0.5                     0.5        18.6819846700755        15.5001354217529        15.5001350058562    -0.00906591783613881    -0.00310292054830169      0.0084537400959211         16.606922595862                       0                      -1     -0.0046783907465474 
      0.616161616161616                     0.5                     0.5        18.9850179714298        15.5001354217529        15.5001350058562    -0.00735041702697519    -0.00460455413530496     0.00726209288675107        16.6065162687844                       0                      -1     -0.0046826328922934 
      0.626262626262626                     0.5                     0.5         19.288051272784        15.5001354217529        15.5001350058562    -0.00539221114464981    -0.00619906782948093     0.00546844220213999         16.604205672085                       0                      -1    -0.00470041408748568 
      0.636363636363636                     0.5                     0.5        19.5910845741382        15.5001354217529        15.5001350058562    -0.00342142558497253    -0.00779815094167612     0.00364342789392628         16.601795710288                       0                      -1    -0.00471889866143605 
      0.646464646464647                     0.5                     0.5        19.8941178754924        15.5001354217529        15.5001350058562    -0.00145059620577763    -0.00939749548560262      0.0018184660014831          16.59938606934                       0                      -1    -0.00473738404523912 
      0.656565656565657                     0.5                     0.5        20.1971511768467        15.5001354217529        15.5001350058562    0.000501330282517189     -0.0107234866708863   -0.000291887819021109        16.5981686506175                       0                      -1    -0.00476488924439308 
      0.666666666666667                     0.5                     0.5        20.5001844782009        15.5001354217529        15.5001350058562     0.00244310519778437     -0.0119016348485596    -0.00255538259410589        16.5975945811806                       0                      -1    -0.00479723518767084 
      0.676767676767677                     0.5                     0.5        20.8032177795551        15.5001354217529        15.5001350058562     0.00438487968861288     -0.0130808187217222    -0.00481900916775183        16.5970174580128                       0                      -1     -0.0048295845740485 
      0.686868686868687                     0.5                     0.5        21.1062510809093        15.5001354217529        15.5001350058562     0.00615973817800573     -0.0138831092552647    -0.00697421122912184        16.5989429566829                       0                      -1    -0.00486294314310343 
      0.696969696969697                     0.5                     0.5        21.4092843822635        15.5001354217529        15.5001350058562      0.0076254600345363     -0.0139873748124341    -0.00892860576840636        16.6055034339149                       0                      -1    -0.00489817076804346 
      0.707070707070707                     0.5                     0.5        21.7123176836178        15.5001354217529        15.5001350058562     0.00909119405778039     -0.0140910401301908      -0.010882616420032        16.6120674680391                       0                      -1    -0.00493339333005243 
      0.717171717171717                     0.5                     0.5         22.015350984972        15.5001354217529        15.5001350058562      0.0105168822958083     -0.0141801230222913     -0.0127950305244408        16.6188654473971                       0                      -1    -0.00496807981703574 
      0.727272727272727                     0.5                     0.5        22.3183842863262        15.5001354217529        15.5001350058562      0.0111923278539675      -0.013984677966261     -0.0139207179940568        16.6301142917554                       0                      -1    -0.00499262520746041 
      0.737373737373737                     0.5                     0.5        22.6214175876804        15.5001354217529        15.5001350058562      0.0118677130595545     -0.0137891780854282     -0.0150459752082061        16.6413649911671                       0                      -1    -0.00501716614262647 
      0.747474747474748                     0.5                     0.5        22.9244508890347        15.5001354217529        15.5001350058562      0.0125431586177137     -0.0135937330293979     -0.0161716626778221        16.6526138355254                       0                      -1    -0.00504171153305114 
      0.757575757575758                     0.5                     0.5        23.2274841903889        15.5001354217529        15.5001350058562      0.0125435542396314     -0.0135292452896365     -0.0166878291863569        16.6646187361005                       0                      -1    -0.00505294918238424 
      0.767676767676768                     0.5                     0.5        23.5305174917431        15.5001354217529        15.5001350058562      0.0123196541957996     -0.0135084530543339     -0.0170011968576108          16.67687488409                       0                      -1    -0.00505976372652206 
      0.777777777777778                     0.5                     0.5        23.8335507930973        15.5001354217529        15.5001350058562      0.0120958609523149     -0.0134874571669144     -0.0173149371375549          16.68913087629                       0                      -1    -0.00506658178077601 
      0.787878787878788                     0.5                     0.5        24.1365843386858        15.5001354217529        15.5001350058562      0.0114827993263516     -0.0137225471766732     -0.0173448344908094        16.7000883465759                       0                      -1    -0.00506643411341513 
      0.797979797979798                     0.5                     0.5        24.4396181819121        15.5001354217529        15.5001350058562      0.0103953529354857     -0.0142697181403341     -0.0170288245828845        16.7094633636221                       0                      -1    -0.00505779761839866 
      0.808080808080808                     0.5                     0.5        24.7426520251384        15.5001354217529        15.5001350058562      0.0093078272861802     -0.0148171896974042     -0.0167125605313368        16.7188370679169                       0                      -1    -0.00504915842318164 
      0.818181818181818                     0.5                     0.5        25.0456857866712        15.5001354217529        15.5001350058562     0.00810820667939707     -0.0155039368773839     -0.0163762029020559        16.7270510896632                       0                      -1    -0.00503935687555875 
      0.828282828282828                     0.5                     0.5        25.3487190880255        15.5001354217529        15.5001350058562      0.0062767099951471     -0.0169769152902193      -0.015925226790705        16.7287252381415                       0                      -1     -0.0050229925999064 
      0.838383838383838                     0.5                     0.5        25.6517523893797        15.5001354217529        15.5001350058562     0.00444523375463283     -0.0184502173206229     -0.0154741673153221        16.7303970971585                       0                      -1    -0.00500662710897205 
      0.848484848484849                     0.5                     0.5        25.9547856907339        15.5001354217529        15.5001350058562     0.00261373707038283     -0.0199231957334583     -0.0150231912039713        16.7320712456368                       0                      -1     -0.0049902628333197 
      0.858585858585859                     0.5                     0.5        26.2578189920881        15.5001354217529        15.5001350058562    0.000252376813621947     -0.0219289767876523     -0.0167150382260252        16.7042954280693                       0                      -1    -0.00497628233600352 
      0.868686868686869                     0.5                     0.5        26.5608522934424        15.5001354217529        15.5001350058562    -0.00220174829265439     -0.0240284010189728     -0.0187828174921274        16.6713534852223                       0                      -1    -0.00496272062945561 
      0.878787878787879                     0.5                     0.5        26.8638855947966        15.5001354217529        15.5001350058562    -0.00465603194207269     -0.0261276208970837      -0.020850456332587        16.6384129594157                       0                      -1    -0.00494915818082561 
      0.888888888888889                     0.5                     0.5        27.1669188961508        15.5001354217529        15.5001350058562    -0.00718632422472583     -0.0281733450185646     -0.0249838039453464         16.577405666626                       0                      -1    -0.00493647187846996 
      0.898989898989899                     0.5                     0.5         27.469952197505        15.5001354217529        15.5001350058562    -0.00977859792555074     -0.0301754458998822     -0.0308016386194815        16.4935112628983                       0                      -1    -0.00492450003164783 
      0.909090909090909                     0.5                     0.5        27.7729854988592        15.5001354217529        15.5001350058562     -0.0123706835906733     -0.0321777243970739     -0.0366199869177674        16.4096143317763                       0                      -1    -0.00491252764366655 
      0.919191919191919                     0.5                     0.5        28.0760188002135        15.5001354217529        15.5001350058562     -0.0146653425375546     -0.0344348100283129     -0.0428000809956593        16.3210687628913                       0                      -1    -0.00488605421973865 
      0.929292929292929                     0.5                     0.5        28.3790521015677        15.5001354217529        15.5001350058562     -0.0160712362749229     -0.0374533551358836     -0.0500619882249886         16.218633446537                       0                      -1    -0.00481627482040498 
      0.939393939393939                     0.5                     0.5        28.6820854029219        15.5001354217529        15.5001350058562     -0.0174770871509532     -0.0404722077893252     -0.0573252193201941        16.1161791131825                       0                      -1    -0.00474649751221636 
       0.94949494949495                     0.5                     0.5        28.9851187042761        15.5001354217529        15.5001350058562     -0.0188829808883215      -0.043490752896896     -0.0645871265495233        16.0137437968281                       0                      -1    -0.00467671811288269 