TITLE = "dt=0.100000s, t=1860.000000s, nu=0.000016, Lx=1.000000, Ly=1.000000, Lz=1.000000, Nx=12, Ny=12, Nz=12 "
VARIABLES =X, Y, Z, I, J, K, U, V, W, T, Xi, FlagP, P 
ZONE F=POINT, I=12, J=12, K=12
0.000000	0.000000	0.000000	0	0	0	0.000000	0.000000	0.000000	10.001660	0.000000	1.000000	0.000000
0.050000	0.000000	0.000000	1	0	0	0.000000	0.000000	0.000000	10.001660	0.000000	1.000000	0.000000
0.150000	0.000000	0.000000	2	0	0	0.000000	0.000000	0.000000	10.001660	0.000000	1.000000	0.000000
0.250000	0.000000	0.000000	3	0	0	0.000000	0.000000	0.000000	10.001660	0.000000	1.000000	0.000000
0.350000	0.000000	0.000000	4	0	0	0.000000	0.000000	0.000000	10.001660	0.000000	1.000000	0.000000
0.450000	0.000000	0.000000	5	0	0	0.000000	0.000000	0.000000	10.001660	0.000000	1.000000	0.000000
0.550000	0.000000	0.000000	6	0	0	0.000000	0.000000	0.000000	10.001660	0.000000	1.000000	0.000000
0.650000	0.000000	0.000000	7	0	0	0.000000	0.000000	0.000000	10.001660	0.000000	1.000000	0.000000
0.750000	0.000000	0.000000	8	0	0	0.000000	0.000000	0.000000	10.001660	0.000000	1.000000	0.000000
0.850000	0.000000	0.000000	9	0	0	0.000000	0.000000	0.000000	10.001660	0.000000	1.000000	0.000000
0.950000	0.000000	0.000000	10	0	0	0.000000	0.000000	0.000000	10.001660	0.000000	1.000000	0.000000
1.000000	0.000000	0.000000	11	0	0	0.000000	0.000000	0.000000	29.995060	0.000000	1.000000	0.000000
0.000000	0.050000	0.000000	0	1	0	0.000000	0.000000	0.000000	10.001659	0.000000	1.000000	0.000000
0.050000	0.050000	0.000000	1	1	0	0.000000	0.000000	0.000000	10.001708	0.000000	1.000000	0.093319
0.150000	0.050000	0.000000	2	1	0	0.000000	0.000000	0.000000	10.001708	0.000000	1.000000	0.093345
0.250000	0.050000	0.000000	3	1	0	0.000000	0.000000	0.000000	10.001708	0.000000	1.000000	0.093329
0.350000	0.050000	0.000000	4	1	0	0.000000	0.000000	0.000000	10.001708	0.000000	1.000000	0.093278
0.450000	0.050000	0.000000	5	1	0	0.000000	0.000000	0.000000	10.001708	0.000000	1.000000	0.093205
0.550000	0.050000	0.000000	6	1	0	0.000000	0.000000	0.000000	10.001708	0.000000	1.000000	0.093108
0.650000	0.050000	0.000000	7	1	0	0.000000	0.000000	0.000000	10.001708	0.000000	1.000000	0.092976
0.750000	0.050000	0.000000	8	1	0	0.000000	0.000000	0.000000	10.001708	0.000000	1.000000	0.092780
0.850000	0.050000	0.000000	9	1	0	0.000000	0.000000	0.000000	10.001708	0.000000	1.000000	0.092439
0.950000	0.050000	0.000000	10	1	0	0.000000	0.000000	0.000000	10.001708	0.000000	1.000000	0.092010
1.000000	0.050000	0.000000	11	1	0	0.000000	0.000000	0.000000	39.991760	0.000000	1.000000	0.000000
0.000000	0.150000	0.000000	0	2	0	0.000000	0.000000	0.000000	10.001659	0.000000	1.000000	0.000000
0.050000	0.150000	0.000000	1	2	0	0.000000	0.000000	0.000000	10.001708	0.000000	1.000000	0.093365
0.150000	0.150000	0.000000	2	2	0	0.000000	0.000000	0.000000	10.001708	0.000000	1.000000	0.093374
0.250000	0.150000	0.000000	3	2	0	0.000000	0.000000	0.000000	10.001708	0.000000	1.000000	0.093346
0.350000	0.150000	0.000000	4	2	0	0.000000	0.000000	0.000000	10.001708	0.000000	1.000000	0.093293
0.450000	0.150000	0.000000	5	2	0	0.000000	0.000000	0.000000	10.001708	0.000000	1.000000	0.093219
0.550000	0.150000	0.000000	6	2	0	0.000000	0.000000	0.000000	10.001708	0.000000	1.000000	0.093123
0.650000	0.150000	0.000000	7	2	0	0.000000	0.000000	0.000000	10.001708	0.000000	1.000000	0.092994
0.750000	0.150000	0.000000	8	2	0	0.000000	0.000000	0.000000	10.001708	0.000000	1.000000	0.092807
0.850000	0.150000	0.000000	9	2	0	0.000000	0.000000	0.000000	10.001708	0.000000	1.000000	0.092509
0.950000	0.150000	0.000000	10	2	0	0.000000	0.000000	0.000000	10.001708	0.000000	1.000000	0.092135
1.000000	0.150000	0.000000	11	2	0	0.000000	0.000000	0.000000	39.991760	0.000000	1.000000	0.000000
0.000000	0.250000	0.000000	0	3	0	0.000000	0.000000	0.000000	10.001659	0.000000	1.000000	0.000000
0.050000	0.250000	0.000000	1	3	0	0.000000	0.000000	0.000000	10.001708	0.000000	1.000000	0.093406
0.150000	0.250000	0.000000	2	3	0	0.000000	0.000000	0.000000	10.001708	0.000000	1.000000	0.093405
0.250000	0.250000	0.000000	3	3	0	0.000000	0.000000	0.000000	10.001708	0.000000	1.000000	0.093365
0.350000	0.250000	0.000000	4	3	0	0.000000	0.000000	0.000000	10.001708	0.000000	1.000000	0.093309
0.450000	0.250000	0.000000	5	3	0	0.000000	0.000000	0.000000	10.001708	0.000000	1.000000	0.093235
0.550000	0.250000	0.000000	6	3	0	0.000000	0.000000	0.000000	10.001708	0.000000	1.000000	0.093141
0.650000	0.250000	0.000000	7	3	0	0.000000	0.000000	0.000000	10.001708	0.000000	1.000000	0.093016
0.750000	0.250000	0.000000	8	3	0	0.000000	0.000000	0.000000	10.001708	0.000000	1.000000	0.092842
0.850000	0.250000	0.000000	9	3	0	0.000000	0.000000	0.000000	10.001708	0.000000	1.000000	0.092574
0.950000	0.250000	0.000000	10	3	0	0.000000	0.000000	0.000000	10.001708	0.000000	1.000000	0.092243
1.000000	0.250000	0.000000	11	3	0	0.000000	0.000000	0.000000	39.991760	0.000000	1.000000	0.000000
0.000000	0.350000	0.000000	0	4	0	0.000000	0.000000	0.000000	10.001659	0.000000	1.000000	0.000000
0.050000	0.350000	0.000000	1	4	0	0.000000	0.000000	0.000000	10.001708	0.000000	1.000000	0.093433
0.150000	0.350000	0.000000	2	4	0	0.000000	0.000000	0.000000	10.001708	0.000000	1.000000	0.093429
0.250000	0.350000	0.000000	3	4	0	0.000000	0.000000	0.000000	10.001708	0.000000	1.000000	0.093379
0.350000	0.350000	0.000000	4	4	0	0.000000	0.000000	0.000000	10.001708	0.000000	1.000000	0.093322
0.450000	0.350000	0.000000	5	4	0	0.000000	0.000000	0.000000	10.001708	0.000000	1.000000	0.093249
0.550000	0.350000	0.000000	6	4	0	0.000000	0.000000	0.000000	10.001708	0.000000	1.000000	0.093155
0.650000	0.350000	0.000000	7	4	0	0.000000	0.000000	0.000000	10.001708	0.000000	1.000000	0.093034
0.750000	0.350000	0.000000	8	4	0	0.000000	0.000000	0.000000	10.001708	0.000000	1.000000	0.092871
0.850000	0.350000	0.000000	9	4	0	0.000000	0.000000	0.000000	10.001708	0.000000	1.000000	0.092626
0.950000	0.350000	0.000000	10	4	0	0.000000	0.000000	0.000000	10.001708	0.000000	1.000000	0.092330
1.000000	0.350000	0.000000	11	4	0	0.000000	0.000000	0.000000	39.991760	0.000000	1.000000	0.000000
0.000000	0.450000	0.000000	0	5	0	0.000000	0.000000	0.000000	10.001659	0.000000	1.000000	0.000000
0.050000	0.450000	0.000000	1	5	0	0.000000	0.000000	0.000000	10.001708	0.000000	1.000000	0.093437
0.150000	0.450000	0.000000	2	5	0	0.000000	0.000000	0.000000	10.001708	0.000000	1.000000	0.093435
0.250000	0.450000	0.000000	3	5	0	0.000000	0.000000	0.000000	10.001708	0.000000	1.000000	0.093385
0.350000	0.450000	0.000000	4	5	0	0.000000	0.000000	0.000000	10.001708	0.000000	1.000000	0.093329
0.450000	0.450000	0.000000	5	5	0	0.000000	0.000000	0.000000	10.001708	0.000000	1.000000	0.093257
0.550000	0.450000	0.000000	6	5	0	0.000000	0.000000	0.000000	10.001708	0.000000	1.000000	0.093164
0.650000	0.450000	0.000000	7	5	0	0.000000	0.000000	0.000000	10.001708	0.000000	1.000000	0.093046
0.750000	0.450000	0.000000	8	5	0	0.000000	0.000000	0.000000	10.001708	0.000000	1.000000	0.092889
0.850000	0.450000	0.000000	9	5	0	0.000000	0.000000	0.000000	10.001708	0.000000	1.000000	0.092657
0.950000	0.450000	0.000000	10	5	0	0.000000	0.000000	0.000000	10.001708	0.000000	1.000000	0.092382
1.000000	0.450000	0.000000	11	5	0	0.000000	0.000000	0.000000	39.991760	0.000000	1.000000	0.000000
0.000000	0.550000	0.000000	0	6	0	0.000000	0.000000	0.000000	10.001659	0.000000	1.000000	0.000000
0.050000	0.550000	0.000000	1	6	0	0.000000	0.000000	0.000000	10.001708	0.000000	1.000000	0.093437
0.150000	0.550000	0.000000	2	6	0	0.000000	0.000000	0.000000	10.001708	0.000000	1.000000	0.093435
0.250000	0.550000	0.000000	3	6	0	0.000000	0.000000	0.000000	10.001708	0.000000	1.000000	0.093385
0.350000	0.550000	0.000000	4	6	0	0.000000	0.000000	0.000000	10.001708	0.000000	1.000000	0.093329
0.450000	0.550000	0.000000	5	6	0	0.000000	0.000000	0.000000	10.001708	0.000000	1.000000	0.093257
0.550000	0.550000	0.000000	6	6	0	0.000000	0.000000	0.000000	10.001708	0.000000	1.000000	0.093164
0.650000	0.550000	0.000000	7	6	0	0.000000	0.000000	0.000000	10.001708	0.000000	1.000000	0.093046
0.750000	0.550000	0.000000	8	6	0	0.000000	0.000000	0.000000	10.001708	0.000000	1.000000	0.092889
0.850000	0.550000	0.000000	9	6	0	0.000000	0.000000	0.000000	10.001708	0.000000	1.000000	0.092657
0.950000	0.550000	0.000000	10	6	0	0.000000	0.000000	0.000000	10.001708	0.000000	1.000000	0.092382
1.000000	0.550000	0.000000	11	6	0	0.000000	0.000000	0.000000	39.991760	0.000000	1.000000	0.000000
0.000000	0.650000	0.000000	0	7	0	0.000000	0.000000	0.000000	10.001659	0.000000	1.000000	0.000000
0.050000	0.650000	0.000000	1	7	0	0.000000	0.000000	0.000000	10.001708	0.000000	1.000000	0.093433
0.150000	0.650000	0.000000	2	7	0	0.000000	0.000000	0.000000	10.001708	0.000000	1.000000	0.093429
0.250000	0.650000	0.000000	3	7	0	0.000000	0.000000	0.000000	10.001708	0.000000	1.000000	0.093379
0.350000	0.650000	0.000000	4	7	0	0.000000	0.000000	0.000000	10.001708	0.000000	1.000000	0.093322
0.450000	0.650000	0.000000	5	7	0	0.000000	0.000000	0.000000	10.001708	0.000000	1.000000	0.093249
0.550000	0.650000	0.000000	6	7	0	0.000000	0.000000	0.000000	10.001708	0.000000	1.000000	0.093155
0.650000	0.650000	0.000000	7	7	0	0.000000	0.000000	0.000000	10.001708	0.000000	1.000000	0.093034
0.750000	0.650000	0.000000	8	7	0	0.000000	0.000000	0.000000	10.001708	0.000000	1.000000	0.092871
0.850000	0.650000	0.000000	9	7	0	0.000000	0.000000	0.000000	10.001708	0.000000	1.000000	0.092626
0.950000	0.650000	0.000000	10	7	0	0.000000	0.000000	0.000000	10.001708	0.000000	1.000000	0.092330
1.000000	0.650000	0.000000	11	7	0	0.000000	0.000000	0.000000	39.991760	0.000000	1.000000	0.000000
0.000000	0.750000	0.000000	0	8	0	0.000000	0.000000	0.000000	10.001659	0.000000	1.000000	0.000000
0.050000	0.750000	0.000000	1	8	0	0.000000	0.000000	0.000000	10.001708	0.000000	1.000000	0.093406
0.150000	0.750000	0.000000	2	8	0	0.000000	0.000000	0.000000	10.001708	0.000000	1.000000	0.093405
0.250000	0.750000	0.000000	3	8	0	0.000000	0.000000	0.000000	10.001708	0.000000	1.000000	0.093365
0.350000	0.750000	0.000000	4	8	0	0.000000	0.000000	0.000000	10.001708	0.000000	1.000000	0.093309
0.450000	0.750000	0.000000	5	8	0	0.000000	0.000000	0.000000	10.001708	0.000000	1.000000	0.093235
0.550000	0.750000	0.000000	6	8	0	0.000000	0.000000	0.000000	10.001708	0.000000	1.000000	0.093141
0.650000	0.750000	0.000000	7	8	0	0.000000	0.000000	0.000000	10.001708	0.000000	1.000000	0.093016
0.750000	0.750000	0.000000	8	8	0	0.000000	0.000000	0.000000	10.001708	0.000000	1.000000	0.092842
0.850000	0.750000	0.000000	9	8	0	0.000000	0.000000	0.000000	10.001708	0.000000	1.000000	0.092574
0.950000	0.750000	0.000000	10	8	0	0.000000	0.000000	0.000000	10.001708	0.000000	1.000000	0.092243
1.000000	0.750000	0.000000	11	8	0	0.000000	0.000000	0.000000	39.991760	0.000000	1.000000	0.000000
0.000000	0.850000	0.000000	0	9	0	0.000000	0.000000	0.000000	10.001659	0.000000	1.000000	0.000000
0.050000	0.850000	0.000000	1	9	0	0.000000	0.000000	0.000000	10.001708	0.000000	1.000000	0.093365
0.150000	0.850000	0.000000	2	9	0	0.000000	0.000000	0.000000	10.001708	0.000000	1.000000	0.093374
0.250000	0.850000	0.000000	3	9	0	0.000000	0.000000	0.000000	10.001708	0.000000	1.000000	0.093346
0.350000	0.850000	0.000000	4	9	0	0.000000	0.000000	0.000000	10.001708	0.000000	1.000000	0.093293
0.450000	0.850000	0.000000	5	9	0	0.000000	0.000000	0.000000	10.001708	0.000000	1.000000	0.093219
0.550000	0.850000	0.000000	6	9	0	0.000000	0.000000	0.000000	10.001708	0.000000	1.000000	0.093123
0.650000	0.850000	0.000000	7	9	0	0.000000	0.000000	0.000000	10.001708	0.000000	1.000000	0.092994
0.750000	0.850000	0.000000	8	9	0	0.000000	0.000000	0.000000	10.001708	0.000000	1.000000	0.092807
0.850000	0.850000	0.000000	9	9	0	0.000000	0.000000	0.000000	10.001708	0.000000	1.000000	0.092509
0.950000	0.850000	0.000000	10	9	0	0.000000	0.000000	0.000000	10.001708	0.000000	1.000000	0.092135
1.000000	0.850000	0.000000	11	9	0	0.000000	0.000000	0.000000	39.991760	0.000000	1.000000	0.000000
0.000000	0.950000	0.000000	0	10	0	0.000000	0.000000	0.000000	10.001659	0.000000	1.000000	0.000000
0.050000	0.950000	0.000000	1	10	0	0.000000	0.000000	0.000000	10.001708	0.000000	1.000000	0.093319
0.150000	0.950000	0.000000	2	10	0	0.000000	0.000000	0.000000	10.001708	0.000000	1.000000	0.093345
0.250000	0.950000	0.000000	3	10	0	0.000000	0.000000	0.000000	10.001708	0.000000	1.000000	0.093329
0.350000	0.950000	0.000000	4	10	0	0.000000	0.000000	0.000000	10.001708	0.000000	1.000000	0.093278
0.450000	0.950000	0.000000	5	10	0	0.000000	0.000000	0.000000	10.001708	0.000000	1.000000	0.093205
0.550000	0.950000	0.000000	6	10	0	0.000000	0.000000	0.000000	10.001708	0.000000	1.000000	0.093108
0.650000	0.950000	0.000000	7	10	0	0.000000	0.000000	0.000000	10.001708	0.000000	1.000000	0.092976
0.750000	0.950000	0.000000	8	10	0	0.000000	0.000000	0.000000	10.001708	0.000000	1.000000	0.092780
0.850000	0.950000	0.000000	9	10	0	0.000000	0.000000	0.000000	10.001708	0.000000	1.000000	0.092439
0.950000	0.950000	0.000000	10	10	0	0.000000	0.000000	0.000000	10.001708	0.000000	1.000000	0.092010
1.000000	0.950000	0.000000	11	10	0	0.000000	0.000000	0.000000	39.991760	0.000000	1.000000	0.000000
0.000000	1.000000	0.000000	0	11	0	0.000000	0.000000	0.000000	10.001660	0.000000	1.000000	0.000000
0.050000	1.000000	0.000000	1	11	0	0.000000	0.000000	0.000000	10.001660	0.000000	1.000000	0.000000
0.150000	1.000000	0.000000	2	11	0	0.000000	0.000000	0.000000	10.001660	0.000000	1.000000	0.000000
0.250000	1.000000	0.000000	3	11	0	0.000000	0.000000	0.000000	10.001660	0.000000	1.000000	0.000000
0.350000	1.000000	0.000000	4	11	0	0.000000	0.000000	0.000000	10.001660	0.000000	1.000000	0.000000
0.450000	1.000000	0.000000	5	11	0	0.000000	0.000000	0.000000	10.001660	0.000000	1.000000	0.000000
0.550000	1.000000	0.000000	6	11	0	0.000000	0.000000	0.000000	10.001660	0.000000	1.000000	0.000000
0.650000	1.000000	0.000000	7	11	0	0.000000	0.000000	0.000000	10.001660	0.000000	1.000000	0.000000
0.750000	1.000000	0.000000	8	11	0	0.000000	0.000000	0.000000	10.001660	0.000000	1.000000	0.000000
0.850000	1.000000	0.000000	9	11	0	0.000000	0.000000	0.000000	10.001660	0.000000	1.000000	0.000000
0.950000	1.000000	0.000000	10	11	0	0.000000	0.000000	0.000000	10.001660	0.000000	1.000000	0.000000
1.000000	1.000000	0.000000	11	11	0	0.000000	0.000000	0.000000	29.995060	0.000000	1.000000	0.000000
0.000000	0.000000	0.050000	0	0	1	0.000000	0.000000	0.000000	10.001659	0.000000	1.000000	0.000000
0.050000	0.000000	0.050000	1	0	1	0.000000	0.000000	0.000000	10.001660	0.000000	1.000000	0.093319
0.150000	0.000000	0.050000	2	0	1	0.000000	0.000000	0.000000	10.001660	0.000000	1.000000	0.093345
0.250000	0.000000	0.050000	3	0	1	0.000000	0.000000	0.000000	10.001660	0.000000	1.000000	0.093329
0.350000	0.000000	0.050000	4	0	1	0.000000	0.000000	0.000000	10.001660	0.000000	1.000000	0.093278
0.450000	0.000000	0.050000	5	0	1	0.000000	0.000000	0.000000	10.001660	0.000000	1.000000	0.093205
0.550000	0.000000	0.050000	6	0	1	0.000000	0.000000	0.000000	10.001660	0.000000	1.000000	0.093108
0.650000	0.000000	0.050000	7	0	1	0.000000	0.000000	0.000000	10.001660	0.000000	1.000000	0.092976
0.750000	0.000000	0.050000	8	0	1	0.000000	0.000000	0.000000	10.001660	0.000000	1.000000	0.092780
0.850000	0.000000	0.050000	9	0	1	0.000000	0.000000	0.000000	10.001660	0.000000	1.000000	0.092439
0.950000	0.000000	0.050000	10	0	1	0.000000	0.000000	0.000000	10.001660	0.000000	1.000000	0.092010
1.000000	0.000000	0.050000	11	0	1	0.000000	0.000000	0.000000	39.991760	0.000000	1.000000	0.000000
0.000000	0.050000	0.050000	0	1	1	0.000000	0.000000	0.000000	10.001659	0.000000	1.000000	0.093319
0.050000	0.050000	0.050000	1	1	1	0.002049	0.002533	-0.004582	13.441679	0.000000	-1.000000	0.093319
0.150000	0.050000	0.050000	2	1	1	0.004571	0.001821	-0.002295	13.326416	0.000000	-1.000000	0.093345
0.250000	0.050000	0.050000	3	1	1	0.006132	0.001926	-0.003012	13.322873	0.000000	-1.000000	0.093329
0.350000	0.050000	0.050000	4	1	1	0.008384	0.001865	-0.003030	13.323269	0.000000	-1.000000	0.093278
0.450000	0.050000	0.050000	5	1	1	0.010844	0.001789	-0.003083	13.328659	0.000000	-1.000000	0.093205
0.550000	0.050000	0.050000	6	1	1	0.013698	0.001717	-0.003276	13.343899	0.000000	-1.000000	0.093108
0.650000	0.050000	0.050000	7	1	1	0.017341	0.001640	-0.003723	13.373482	0.000000	-1.000000	0.092976
0.750000	0.050000	0.050000	8	1	1	0.022669	0.001445	-0.004690	13.421056	0.000000	-1.000000	0.092780
0.850000	0.050000	0.050000	9	1	1	0.031305	0.000618	-0.006008	13.471116	0.000000	-1.000000	0.092439
0.950000	0.050000	0.050000	10	1	1	0.018347	-0.002608	0.020955	13.909552	0.000000	-1.000000	0.092010
1.000000	0.050000	0.050000	11	1	1	0.000000	0.000000	0.000000	39.991760	0.000000	1.000000	0.092010
0.000000	0.150000	0.050000	0	2	1	0.000000	0.000000	0.000000	10.001659	0.000000	1.000000	0.093365
0.050000	0.150000	0.050000	1	2	1	0.002370	0.004828	-0.002131	13.349173	0.000000	-1.000000	0.093365
0.150000	0.150000	0.050000	2	2	1	0.005967	0.003396	-0.000979	13.315235	0.000000	-1.000000	0.093374
0.250000	0.150000	0.050000	3	2	1	0.008709	0.003489	-0.001154	13.306281	0.000000	-1.000000	0.093346
0.350000	0.150000	0.050000	4	2	1	0.011753	0.003358	-0.001156	13.301165	0.000000	-1.000000	0.093293
0.450000	0.150000	0.050000	5	2	1	0.014899	0.003166	-0.001208	13.301707	0.000000	-1.000000	0.093219
0.550000	0.150000	0.050000	6	2	1	0.018366	0.002947	-0.001362	13.311023	0.000000	-1.000000	0.093123
0.650000	0.150000	0.050000	7	2	1	0.022506	0.002656	-0.001668	13.331643	0.000000	-1.000000	0.092994
0.750000	0.150000	0.050000	8	2	1	0.027941	0.002028	-0.002283	13.366912	0.000000	-1.000000	0.092807
0.850000	0.150000	0.050000	9	2	1	0.035468	0.000179	-0.003326	13.418042	0.000000	-1.000000	0.092509
0.950000	0.150000	0.050000	10	2	1	0.019926	-0.005533	0.020242	13.903950	0.000000	-1.000000	0.092135
1.000000	0.150000	0.050000	11	2	1	0.000000	0.000000	0.000000	39.991760	0.000000	1.000000	0.092135
0.000000	0.250000	0.050000	0	3	1	0.000000	0.000000	0.000000	10.001659	0.000000	1.000000	0.093406
0.050000	0.250000	0.050000	1	3	1	0.002929	0.003771	-0.002111	13.260228	0.000000	-1.000000	0.093406
0.150000	0.250000	0.050000	2	3	1	0.007561	0.002679	-0.001234	13.278208	0.000000	-1.000000	0.093405
0.250000	0.250000	0.050000	3	3	1	0.010895	0.002662	-0.001164	13.278035	0.000000	-1.000000	0.093365
0.350000	0.250000	0.050000	4	3	1	0.014145	0.002548	-0.001180	13.277549	0.000000	-1.000000	0.093309
0.450000	0.250000	0.050000	5	3	1	0.017454	0.002336	-0.001272	13.281430	0.000000	-1.000000	0.093235
0.550000	0.250000	0.050000	6	3	1	0.021012	0.002043	-0.001449	13.292309	0.000000	-1.000000	0.093141
0.650000	0.250000	0.050000	7	3	1	0.025075	0.001587	-0.001751	13.312314	0.000000	-1.000000	0.093016
0.750000	0.250000	0.050000	8	3	1	0.030073	0.000691	-0.002325	13.345414	0.000000	-1.000000	0.092842
0.850000	0.250000	0.050000	9	3	1	0.036661	-0.001220	-0.003446	13.399379	0.000000	-1.000000	0.092574
0.950000	0.250000	0.050000	10	3	1	0.020224	-0.005488	0.019863	13.883670	0.000000	-1.000000	0.092243
1.000000	0.250000	0.050000	11	3	1	0.000000	0.000000	0.000000	39.991760	0.000000	1.000000	0.092243
0.000000	0.350000	0.050000	0	4	1	0.000000	0.000000	0.000000	10.001659	0.000000	1.000000	0.093433
0.050000	0.350000	0.050000	1	4	1	0.003609	0.002300	-0.002956	13.286195	0.000000	-1.000000	0.093433
0.150000	0.350000	0.050000	2	4	1	0.009146	0.001769	-0.001489	13.299420	0.000000	-1.000000	0.093429
0.250000	0.350000	0.050000	3	4	1	0.012752	0.001741	-0.001224	13.291552	0.000000	-1.000000	0.093379
0.350000	0.350000	0.050000	4	4	1	0.016119	0.001650	-0.001230	13.286882	0.000000	-1.000000	0.093322
0.450000	0.350000	0.050000	5	4	1	0.019564	0.001483	-0.001322	13.288245	0.000000	-1.000000	0.093249
0.550000	0.350000	0.050000	6	4	1	0.023213	0.001232	-0.001500	13.297073	0.000000	-1.000000	0.093155
0.650000	0.350000	0.050000	7	4	1	0.027226	0.000823	-0.001802	13.315088	0.000000	-1.000000	0.093034
0.750000	0.350000	0.050000	8	4	1	0.031880	0.000056	-0.002374	13.346473	0.000000	-1.000000	0.092871
0.850000	0.350000	0.050000	9	4	1	0.037712	-0.001356	-0.003506	13.399607	0.000000	-1.000000	0.092626
0.950000	0.350000	0.050000	10	4	1	0.020506	-0.004118	0.019497	13.878722	0.000000	-1.000000	0.092330
1.000000	0.350000	0.050000	11	4	1	0.000000	0.000000	0.000000	39.991760	0.000000	1.000000	0.092330
0.000000	0.450000	0.050000	0	5	1	0.000000	0.000000	0.000000	10.001659	0.000000	1.000000	0.093437
0.050000	0.450000	0.050000	1	5	1	0.003983	0.000824	-0.003160	13.319775	0.000000	-1.000000	0.093437
0.150000	0.450000	0.050000	2	5	1	0.009964	0.000665	-0.001332	13.316139	0.000000	-1.000000	0.093435
0.250000	0.450000	0.050000	3	5	1	0.013656	0.000643	-0.001052	13.298352	0.000000	-1.000000	0.093385
0.350000	0.450000	0.050000	4	5	1	0.017103	0.000596	-0.001156	13.290909	0.000000	-1.000000	0.093329
0.450000	0.450000	0.050000	5	5	1	0.020688	0.000524	-0.001309	13.292000	0.000000	-1.000000	0.093257
0.550000	0.450000	0.050000	6	5	1	0.024449	0.000421	-0.001509	13.300618	0.000000	-1.000000	0.093164
0.650000	0.450000	0.050000	7	5	1	0.028460	0.000251	-0.001830	13.318306	0.000000	-1.000000	0.093046
0.750000	0.450000	0.050000	8	5	1	0.032926	-0.000051	-0.002436	13.349677	0.000000	-1.000000	0.092889
0.850000	0.450000	0.050000	9	5	1	0.038325	-0.000575	-0.003590	13.402913	0.000000	-1.000000	0.092657
0.950000	0.450000	0.050000	10	5	1	0.020670	-0.001554	0.019116	13.878356	0.000000	-1.000000	0.092382
1.000000	0.450000	0.050000	11	5	1	0.000000	0.000000	0.000000	39.991760	0.000000	1.000000	0.092382
0.000000	0.550000	0.050000	0	6	1	0.000000	0.000000	0.000000	10.001659	0.000000	1.000000	0.093437
0.050000	0.550000	0.050000	1	6	1	0.003983	-0.000824	-0.003160	13.319775	0.000000	-1.000000	0.093437
0.150000	0.550000	0.050000	2	6	1	0.009964	-0.000665	-0.001332	13.316139	0.000000	-1.000000	0.093435
0.250000	0.550000	0.050000	3	6	1	0.013656	-0.000643	-0.001052	13.298352	0.000000	-1.000000	0.093385
0.350000	0.550000	0.050000	4	6	1	0.017103	-0.000596	-0.001156	13.290909	0.000000	-1.000000	0.093329
0.450000	0.550000	0.050000	5	6	1	0.020688	-0.000524	-0.001309	13.292000	0.000000	-1.000000	0.093257
0.550000	0.550000	0.050000	6	6	1	0.024449	-0.000421	-0.001509	13.300618	0.000000	-1.000000	0.093164
0.650000	0.550000	0.050000	7	6	1	0.028460	-0.000251	-0.001830	13.318306	0.000000	-1.000000	0.093046
0.750000	0.550000	0.050000	8	6	1	0.032926	0.000051	-0.002436	13.349677	0.000000	-1.000000	0.092889
0.850000	0.550000	0.050000	9	6	1	0.038325	0.000575	-0.003590	13.402913	0.000000	-1.000000	0.092657
0.950000	0.550000	0.050000	10	6	1	0.020670	0.001554	0.019116	13.878356	0.000000	-1.000000	0.092382
1.000000	0.550000	0.050000	11	6	1	0.000000	0.000000	0.000000	39.991760	0.000000	1.000000	0.092382
0.000000	0.650000	0.050000	0	7	1	0.000000	0.000000	0.000000	10.001659	0.000000	1.000000	0.093433
0.050000	0.650000	0.050000	1	7	1	0.003609	-0.002300	-0.002956	13.286195	0.000000	-1.000000	0.093433
0.150000	0.650000	0.050000	2	7	1	0.009146	-0.001769	-0.001489	13.299420	0.000000	-1.000000	0.093429
0.250000	0.650000	0.050000	3	7	1	0.012752	-0.001741	-0.001224	13.291552	0.000000	-1.000000	0.093379
0.350000	0.650000	0.050000	4	7	1	0.016119	-0.001650	-0.001230	13.286882	0.000000	-1.000000	0.093322
0.450000	0.650000	0.050000	5	7	1	0.019564	-0.001483	-0.001322	13.288245	0.000000	-1.000000	0.093249
0.550000	0.650000	0.050000	6	7	1	0.023213	-0.001232	-0.001500	13.297073	0.000000	-1.000000	0.093155
0.650000	0.650000	0.050000	7	7	1	0.027226	-0.000823	-0.001802	13.315088	0.000000	-1.000000	0.093034
0.750000	0.650000	0.050000	8	7	1	0.031880	-0.000056	-0.002374	13.346473	0.000000	-1.000000	0.092871
0.850000	0.650000	0.050000	9	7	1	0.037712	0.001356	-0.003506	13.399607	0.000000	-1.000000	0.092626
0.950000	0.650000	0.050000	10	7	1	0.020506	0.004118	0.019497	13.878722	0.000000	-1.000000	0.092330
1.000000	0.650000	0.050000	11	7	1	0.000000	0.000000	0.000000	39.991760	0.000000	1.000000	0.092330
0.000000	0.750000	0.050000	0	8	1	0.000000	0.000000	0.000000	10.001659	0.000000	1.000000	0.093406
0.050000	0.750000	0.050000	1	8	1	0.002929	-0.003771	-0.002111	13.260228	0.000000	-1.000000	0.093406
0.150000	0.750000	0.050000	2	8	1	0.007561	-0.002679	-0.001234	13.278208	0.000000	-1.000000	0.093405
0.250000	0.750000	0.050000	3	8	1	0.010895	-0.002662	-0.001164	13.278035	0.000000	-1.000000	0.093365
0.350000	0.750000	0.050000	4	8	1	0.014145	-0.002548	-0.001180	13.277549	0.000000	-1.000000	0.093309
0.450000	0.750000	0.050000	5	8	1	0.017454	-0.002336	-0.001272	13.281430	0.000000	-1.000000	0.093235
0.550000	0.750000	0.050000	6	8	1	0.021012	-0.002043	-0.001449	13.292309	0.000000	-1.000000	0.093141
0.650000	0.750000	0.050000	7	8	1	0.025075	-0.001587	-0.001751	13.312314	0.000000	-1.000000	0.093016
0.750000	0.750000	0.050000	8	8	1	0.030073	-0.000691	-0.002325	13.345414	0.000000	-1.000000	0.092842
0.850000	0.750000	0.050000	9	8	1	0.036661	0.001220	-0.003446	13.399379	0.000000	-1.000000	0.092574
0.950000	0.750000	0.050000	10	8	1	0.020224	0.005488	0.019863	13.883670	0.000000	-1.000000	0.092243
1.000000	0.750000	0.050000	11	8	1	0.000000	0.000000	0.000000	39.991760	0.000000	1.000000	0.092243
0.000000	0.850000	0.050000	0	9	1	0.000000	0.000000	0.000000	10.001659	0.000000	1.000000	0.093365
0.050000	0.850000	0.050000	1	9	1	0.002370	-0.004828	-0.002131	13.349173	0.000000	-1.000000	0.093365
0.150000	0.850000	0.050000	2	9	1	0.005967	-0.003396	-0.000979	13.315235	0.000000	-1.000000	0.093374
0.250000	0.850000	0.050000	3	9	1	0.008709	-0.003489	-0.001154	13.306281	0.000000	-1.000000	0.093346
0.350000	0.850000	0.050000	4	9	1	0.011753	-0.003358	-0.001156	13.301165	0.000000	-1.000000	0.093293
0.450000	0.850000	0.050000	5	9	1	0.014899	-0.003166	-0.001208	13.301707	0.000000	-1.000000	0.093219
0.550000	0.850000	0.050000	6	9	1	0.018366	-0.002947	-0.001362	13.311023	0.000000	-1.000000	0.093123
0.650000	0.850000	0.050000	7	9	1	0.022506	-0.002656	-0.001668	13.331643	0.000000	-1.000000	0.092994
0.750000	0.850000	0.050000	8	9	1	0.027941	-0.002028	-0.002283	13.366912	0.000000	-1.000000	0.092807
0.850000	0.850000	0.050000	9	9	1	0.035468	-0.000179	-0.003326	13.418042	0.000000	-1.000000	0.092509
0.950000	0.850000	0.050000	10	9	1	0.019926	0.005533	0.020242	13.903950	0.000000	-1.000000	0.092135
1.000000	0.850000	0.050000	11	9	1	0.000000	0.000000	0.000000	39.991760	0.000000	1.000000	0.092135
0.000000	0.950000	0.050000	0	10	1	0.000000	0.000000	0.000000	10.001659	0.000000	1.000000	0.093319
0.050000	0.950000	0.050000	1	10	1	0.002049	-0.002533	-0.004582	13.441679	0.000000	-1.000000	0.093319
0.150000	0.950000	0.050000	2	10	1	0.004571	-0.001821	-0.002295	13.326416	0.000000	-1.000000	0.093345
0.250000	0.950000	0.050000	3	10	1	0.006132	-0.001926	-0.003012	13.322873	0.000000	-1.000000	0.093329
0.350000	0.950000	0.050000	4	10	1	0.008384	-0.001865	-0.003030	13.323269	0.000000	-1.000000	0.093278
0.450000	0.950000	0.050000	5	10	1	0.010844	-0.001789	-0.003083	13.328659	0.000000	-1.000000	0.093205
0.550000	0.950000	0.050000	6	10	1	0.013698	-0.001717	-0.003276	13.343899	0.000000	-1.000000	0.093108
0.650000	0.950000	0.050000	7	10	1	0.017341	-0.001640	-0.003723	13.373482	0.000000	-1.000000	0.092976
0.750000	0.950000	0.050000	8	10	1	0.022669	-0.001445	-0.004690	13.421056	0.000000	-1.000000	0.092780
0.850000	0.950000	0.050000	9	10	1	0.031305	-0.000618	-0.006008	13.471116	0.000000	-1.000000	0.092439
0.950000	0.950000	0.050000	10	10	1	0.018347	0.002608	0.020955	13.909552	0.000000	-1.000000	0.092010
1.000000	0.950000	0.050000	11	10	1	0.000000	0.000000	0.000000	39.991760	0.000000	1.000000	0.092010
0.000000	1.000000	0.050000	0	11	1	0.000000	0.000000	0.000000	10.001659	0.000000	1.000000	0.000000
0.050000	1.000000	0.050000	1	11	1	0.000000	0.000000	0.000000	10.001660	0.000000	1.000000	0.093319
0.150000	1.000000	0.050000	2	11	1	0.000000	0.000000	0.000000	10.001660	0.000000	1.000000	0.093345
0.250000	1.000000	0.050000	3	11	1	0.000000	0.000000	0.000000	10.001660	0.000000	1.000000	0.093329
0.350000	1.000000	0.050000	4	11	1	0.000000	0.000000	0.000000	10.001660	0.000000	1.000000	0.093278
0.450000	1.000000	0.050000	5	11	1	0.000000	0.000000	0.000000	10.001660	0.000000	1.000000	0.093205
0.550000	1.000000	0.050000	6	11	1	0.000000	0.000000	0.000000	10.001660	0.000000	1.000000	0.093108
0.650000	1.000000	0.050000	7	11	1	0.000000	0.000000	0.000000	10.001660	0.000000	1.000000	0.092976
0.750000	1.000000	0.050000	8	11	1	0.000000	0.000000	0.000000	10.001660	0.000000	1.000000	0.092780
0.850000	1.000000	0.050000	9	11	1	0.000000	0.000000	0.000000	10.001660	0.000000	1.000000	0.092439
0.950000	1.000000	0.050000	10	11	1	0.000000	0.000000	0.000000	10.001660	0.000000	1.000000	0.092010
1.000000	1.000000	0.050000	11	11	1	0.000000	0.000000	0.000000	39.991760	0.000000	1.000000	0.000000
0.000000	0.000000	0.150000	0	0	2	0.000000	0.000000	0.000000	10.001659	0.000000	1.000000	0.000000
0.050000	0.000000	0.150000	1	0	2	0.000000	0.000000	0.000000	10.001660	0.000000	1.000000	0.069891
0.150000	0.000000	0.150000	2	0	2	0.000000	0.000000	0.000000	10.001660	0.000000	1.000000	0.069735
0.250000	0.000000	0.150000	3	0	2	0.000000	0.000000	0.000000	10.001660	0.000000	1.000000	0.069716
0.350000	0.000000	0.150000	4	0	2	0.000000	0.000000	0.000000	10.001660	0.000000	1.000000	0.069659
0.450000	0.000000	0.150000	5	0	2	0.000000	0.000000	0.000000	10.001660	0.000000	1.000000	0.069603
0.550000	0.000000	0.150000	6	0	2	0.000000	0.000000	0.000000	10.001660	0.000000	1.000000	0.069555
0.650000	0.000000	0.150000	7	0	2	0.000000	0.000000	0.000000	10.001660	0.000000	1.000000	0.069519
0.750000	0.000000	0.150000	8	0	2	0.000000	0.000000	0.000000	10.001660	0.000000	1.000000	0.069487
0.850000	0.000000	0.150000	9	0	2	0.000000	0.000000	0.000000	10.001660	0.000000	1.000000	0.069424
0.950000	0.000000	0.150000	10	0	2	0.000000	0.000000	0.000000	10.001660	0.000000	1.000000	0.070056
1.000000	0.000000	0.150000	11	0	2	0.000000	0.000000	0.000000	39.991760	0.000000	1.000000	0.000000
0.000000	0.050000	0.150000	0	1	2	0.000000	0.000000	0.000000	10.001659	0.000000	1.000000	0.069891
0.050000	0.050000	0.150000	1	1	2	0.006088	0.009732	-0.024985	14.399749	0.000000	-1.000000	0.069891
0.150000	0.050000	0.150000	2	1	2	0.007043	0.008106	-0.007563	14.272997	0.000000	-1.000000	0.069735