TITLE = "dt=10.000000s, t=7230.000000s, nu=0.000015, Lx=1.000000, Ly=1.000000, Lz=1.000000, Nx=22, Ny=22, Nz=22 "
VARIABLES =X, Y, Z, I, J, K, U, V, W, T, Xi, FlagP, P 
ZONE F=POINT, I=22, J=22, K=22
0.000000	0.000000	0.000000	0	0	0	0.000000	0.000000	0.000000	0.666667	0.000000	1.000000	0.000000
0.025000	0.000000	0.000000	1	0	0	0.000000	0.000000	0.000000	0.000000	0.000000	1.000000	0.000000
0.075000	0.000000	0.000000	2	0	0	0.000000	0.000000	0.000000	0.000000	0.000000	1.000000	0.000000
0.125000	0.000000	0.000000	3	0	0	0.000000	0.000000	0.000000	0.000000	0.000000	1.000000	0.000000
0.175000	0.000000	0.000000	4	0	0	0.000000	0.000000	0.000000	0.000000	0.000000	1.000000	0.000000
0.225000	0.000000	0.000000	5	0	0	0.000000	0.000000	0.000000	0.000000	0.000000	1.000000	0.000000
0.275000	0.000000	0.000000	6	0	0	0.000000	0.000000	0.000000	0.000000	0.000000	1.000000	0.000000
0.325000	0.000000	0.000000	7	0	0	0.000000	0.000000	0.000000	0.000000	0.000000	1.000000	0.000000
0.375000	0.000000	0.000000	8	0	0	0.000000	0.000000	0.000000	0.000000	0.000000	1.000000	0.000000
0.425000	0.000000	0.000000	9	0	0	0.000000	0.000000	0.000000	0.000000	0.000000	1.000000	0.000000
0.475000	0.000000	0.000000	10	0	0	0.000000	0.000000	0.000000	0.000000	0.000000	1.000000	0.000000
0.525000	0.000000	0.000000	11	0	0	0.000000	0.000000	0.000000	0.000000	0.000000	1.000000	0.000000
0.575000	0.000000	0.000000	12	0	0	0.000000	0.000000	0.000000	0.000000	0.000000	1.000000	0.000000
0.625000	0.000000	0.000000	13	0	0	0.000000	0.000000	0.000000	0.000000	0.000000	1.000000	0.000000
0.675000	0.000000	0.000000	14	0	0	0.000000	0.000000	0.000000	0.000000	0.000000	1.000000	0.000000
0.725000	0.000000	0.000000	15	0	0	0.000000	0.000000	0.000000	0.000000	0.000000	1.000000	0.000000
0.775000	0.000000	0.000000	16	0	0	0.000000	0.000000	0.000000	0.000000	0.000000	1.000000	0.000000
0.825000	0.000000	0.000000	17	0	0	0.000000	0.000000	0.000000	0.000000	0.000000	1.000000	0.000000
0.875000	0.000000	0.000000	18	0	0	0.000000	0.000000	0.000000	0.000000	0.000000	1.000000	0.000000
0.925000	0.000000	0.000000	19	0	0	0.000000	0.000000	0.000000	0.000000	0.000000	1.000000	0.000000
0.975000	0.000000	0.000000	20	0	0	0.000000	0.000000	0.000000	0.000000	0.000000	1.000000	0.000000
1.000000	0.000000	0.000000	21	0	0	0.000000	0.000000	0.000000	0.000000	0.000000	1.000000	0.000000
0.000000	0.025000	0.000000	0	1	0	0.000000	0.000000	0.000000	1.000000	0.000000	1.000000	0.000000
0.025000	0.025000	0.000000	1	1	0	0.000000	0.000000	0.000000	1.167527	0.000000	1.000000	-0.000024
0.075000	0.025000	0.000000	2	1	0	0.000000	0.000000	0.000000	1.343441	0.000000	1.000000	-0.000024
0.125000	0.025000	0.000000	3	1	0	0.000000	0.000000	0.000000	1.492567	0.000000	1.000000	-0.000024
0.175000	0.025000	0.000000	4	1	0	0.000000	0.000000	0.000000	1.630215	0.000000	1.000000	-0.000025
0.225000	0.025000	0.000000	5	1	0	0.000000	0.000000	0.000000	1.742603	0.000000	1.000000	-0.000025
0.275000	0.025000	0.000000	6	1	0	0.000000	0.000000	0.000000	1.784679	0.000000	1.000000	-0.000025
0.325000	0.025000	0.000000	7	1	0	0.000000	0.000000	0.000000	1.718942	0.000000	1.000000	-0.000025
0.375000	0.025000	0.000000	8	1	0	0.000000	0.000000	0.000000	1.598056	0.000000	1.000000	-0.000025
0.425000	0.025000	0.000000	9	1	0	0.000000	0.000000	0.000000	1.467079	0.000000	1.000000	-0.000025
0.475000	0.025000	0.000000	10	1	0	0.000000	0.000000	0.000000	1.341304	0.000000	1.000000	-0.000024
0.525000	0.025000	0.000000	11	1	0	0.000000	0.000000	0.000000	1.222179	0.000000	1.000000	-0.000024
0.575000	0.025000	0.000000	12	1	0	0.000000	0.000000	0.000000	1.108431	0.000000	1.000000	-0.000024
0.625000	0.025000	0.000000	13	1	0	0.000000	0.000000	0.000000	0.999230	0.000000	1.000000	-0.000024
0.675000	0.025000	0.000000	14	1	0	0.000000	0.000000	0.000000	0.894301	0.000000	1.000000	-0.000023
0.725000	0.025000	0.000000	15	1	0	0.000000	0.000000	0.000000	0.793240	0.000000	1.000000	-0.000023
0.775000	0.025000	0.000000	16	1	0	0.000000	0.000000	0.000000	0.694600	0.000000	1.000000	-0.000022
0.825000	0.025000	0.000000	17	1	0	0.000000	0.000000	0.000000	0.595338	0.000000	1.000000	-0.000021
0.875000	0.025000	0.000000	18	1	0	0.000000	0.000000	0.000000	0.489320	0.000000	1.000000	-0.000020
0.925000	0.025000	0.000000	19	1	0	0.000000	0.000000	0.000000	0.363466	0.000000	1.000000	-0.000020
0.975000	0.025000	0.000000	20	1	0	0.000000	0.000000	0.000000	0.192903	0.000000	1.000000	-0.000019
1.000000	0.025000	0.000000	21	1	0	0.000000	0.000000	0.000000	0.000000	0.000000	1.000000	0.000000
0.000000	0.075000	0.000000	0	2	0	0.000000	0.000000	0.000000	1.000000	0.000000	1.000000	0.000000
0.025000	0.075000	0.000000	1	2	0	0.000000	0.000000	0.000000	1.163056	0.000000	1.000000	-0.000024
0.075000	0.075000	0.000000	2	2	0	0.000000	0.000000	0.000000	1.323288	0.000000	1.000000	-0.000024
0.125000	0.075000	0.000000	3	2	0	0.000000	0.000000	0.000000	1.462849	0.000000	1.000000	-0.000024
0.175000	0.075000	0.000000	4	2	0	0.000000	0.000000	0.000000	1.596988	0.000000	1.000000	-0.000025
0.225000	0.075000	0.000000	5	2	0	0.000000	0.000000	0.000000	1.710577	0.000000	1.000000	-0.000025
0.275000	0.075000	0.000000	6	2	0	0.000000	0.000000	0.000000	1.747152	0.000000	1.000000	-0.000025
0.325000	0.075000	0.000000	7	2	0	0.000000	0.000000	0.000000	1.658204	0.000000	1.000000	-0.000025
0.375000	0.075000	0.000000	8	2	0	0.000000	0.000000	0.000000	1.523576	0.000000	1.000000	-0.000025
0.425000	0.075000	0.000000	9	2	0	0.000000	0.000000	0.000000	1.389575	0.000000	1.000000	-0.000025
0.475000	0.075000	0.000000	10	2	0	0.000000	0.000000	0.000000	1.266357	0.000000	1.000000	-0.000024
0.525000	0.075000	0.000000	11	2	0	0.000000	0.000000	0.000000	1.152574	0.000000	1.000000	-0.000024
0.575000	0.075000	0.000000	12	2	0	0.000000	0.000000	0.000000	1.046099	0.000000	1.000000	-0.000024
0.625000	0.075000	0.000000	13	2	0	0.000000	0.000000	0.000000	0.945995	0.000000	1.000000	-0.000024
0.675000	0.075000	0.000000	14	2	0	0.000000	0.000000	0.000000	0.851820	0.000000	1.000000	-0.000023
0.725000	0.075000	0.000000	15	2	0	0.000000	0.000000	0.000000	0.762797	0.000000	1.000000	-0.000023
0.775000	0.075000	0.000000	16	2	0	0.000000	0.000000	0.000000	0.676902	0.000000	1.000000	-0.000022
0.825000	0.075000	0.000000	17	2	0	0.000000	0.000000	0.000000	0.590257	0.000000	1.000000	-0.000021
0.875000	0.075000	0.000000	18	2	0	0.000000	0.000000	0.000000	0.492744	0.000000	1.000000	-0.000020
0.925000	0.075000	0.000000	19	2	0	0.000000	0.000000	0.000000	0.370572	0.000000	1.000000	-0.000020
0.975000	0.075000	0.000000	20	2	0	0.000000	0.000000	0.000000	0.203177	0.000000	1.000000	-0.000019
1.000000	0.075000	0.000000	21	2	0	0.000000	0.000000	0.000000	0.000000	0.000000	1.000000	0.000000
0.000000	0.125000	0.000000	0	3	0	0.000000	0.000000	0.000000	1.000000	0.000000	1.000000	0.000000
0.025000	0.125000	0.000000	1	3	0	0.000000	0.000000	0.000000	1.159883	0.000000	1.000000	-0.000024
0.075000	0.125000	0.000000	2	3	0	0.000000	0.000000	0.000000	1.312319	0.000000	1.000000	-0.000024
0.125000	0.125000	0.000000	3	3	0	0.000000	0.000000	0.000000	1.444782	0.000000	1.000000	-0.000024
0.175000	0.125000	0.000000	4	3	0	0.000000	0.000000	0.000000	1.573841	0.000000	1.000000	-0.000025
0.225000	0.125000	0.000000	5	3	0	0.000000	0.000000	0.000000	1.681126	0.000000	1.000000	-0.000025
0.275000	0.125000	0.000000	6	3	0	0.000000	0.000000	0.000000	1.697238	0.000000	1.000000	-0.000025
0.325000	0.125000	0.000000	7	3	0	0.000000	0.000000	0.000000	1.586867	0.000000	1.000000	-0.000025
0.375000	0.125000	0.000000	8	3	0	0.000000	0.000000	0.000000	1.446318	0.000000	1.000000	-0.000025
0.425000	0.125000	0.000000	9	3	0	0.000000	0.000000	0.000000	1.316290	0.000000	1.000000	-0.000025
0.475000	0.125000	0.000000	10	3	0	0.000000	0.000000	0.000000	1.201405	0.000000	1.000000	-0.000024
0.525000	0.125000	0.000000	11	3	0	0.000000	0.000000	0.000000	1.098024	0.000000	1.000000	-0.000024
0.575000	0.125000	0.000000	12	3	0	0.000000	0.000000	0.000000	1.003201	0.000000	1.000000	-0.000024
0.625000	0.125000	0.000000	13	3	0	0.000000	0.000000	0.000000	0.915392	0.000000	1.000000	-0.000024
0.675000	0.125000	0.000000	14	3	0	0.000000	0.000000	0.000000	0.833382	0.000000	1.000000	-0.000023
0.725000	0.125000	0.000000	15	3	0	0.000000	0.000000	0.000000	0.755389	0.000000	1.000000	-0.000023
0.775000	0.125000	0.000000	16	3	0	0.000000	0.000000	0.000000	0.678738	0.000000	1.000000	-0.000022
0.825000	0.125000	0.000000	17	3	0	0.000000	0.000000	0.000000	0.598869	0.000000	1.000000	-0.000021
0.875000	0.125000	0.000000	18	3	0	0.000000	0.000000	0.000000	0.504146	0.000000	1.000000	-0.000020
0.925000	0.125000	0.000000	19	3	0	0.000000	0.000000	0.000000	0.381713	0.000000	1.000000	-0.000019
0.975000	0.125000	0.000000	20	3	0	0.000000	0.000000	0.000000	0.211524	0.000000	1.000000	-0.000019
1.000000	0.125000	0.000000	21	3	0	0.000000	0.000000	0.000000	0.000000	0.000000	1.000000	0.000000
0.000000	0.175000	0.000000	0	4	0	0.000000	0.000000	0.000000	1.000000	0.000000	1.000000	0.000000
0.025000	0.175000	0.000000	1	4	0	0.000000	0.000000	0.000000	1.158616	0.000000	1.000000	-0.000024
0.075000	0.175000	0.000000	2	4	0	0.000000	0.000000	0.000000	1.308736	0.000000	1.000000	-0.000024
0.125000	0.175000	0.000000	3	4	0	0.000000	0.000000	0.000000	1.438436	0.000000	1.000000	-0.000024
0.175000	0.175000	0.000000	4	4	0	0.000000	0.000000	0.000000	1.564226	0.000000	1.000000	-0.000025
0.225000	0.175000	0.000000	5	4	0	0.000000	0.000000	0.000000	1.663008	0.000000	1.000000	-0.000025
0.275000	0.175000	0.000000	6	4	0	0.000000	0.000000	0.000000	1.655588	0.000000	1.000000	-0.000025
0.325000	0.175000	0.000000	7	4	0	0.000000	0.000000	0.000000	1.534047	0.000000	1.000000	-0.000025
0.375000	0.175000	0.000000	8	4	0	0.000000	0.000000	0.000000	1.395058	0.000000	1.000000	-0.000025
0.425000	0.175000	0.000000	9	4	0	0.000000	0.000000	0.000000	1.271818	0.000000	1.000000	-0.000025
0.475000	0.175000	0.000000	10	4	0	0.000000	0.000000	0.000000	1.165179	0.000000	1.000000	-0.000024
0.525000	0.175000	0.000000	11	4	0	0.000000	0.000000	0.000000	1.070260	0.000000	1.000000	-0.000024
0.575000	0.175000	0.000000	12	4	0	0.000000	0.000000	0.000000	0.983564	0.000000	1.000000	-0.000024
0.625000	0.175000	0.000000	13	4	0	0.000000	0.000000	0.000000	0.903027	0.000000	1.000000	-0.000024
0.675000	0.175000	0.000000	14	4	0	0.000000	0.000000	0.000000	0.826931	0.000000	1.000000	-0.000023
0.725000	0.175000	0.000000	15	4	0	0.000000	0.000000	0.000000	0.753218	0.000000	1.000000	-0.000023
0.775000	0.175000	0.000000	16	4	0	0.000000	0.000000	0.000000	0.679273	0.000000	1.000000	-0.000022
0.825000	0.175000	0.000000	17	4	0	0.000000	0.000000	0.000000	0.601041	0.000000	1.000000	-0.000021
0.875000	0.175000	0.000000	18	4	0	0.000000	0.000000	0.000000	0.507141	0.000000	1.000000	-0.000020
0.925000	0.175000	0.000000	19	4	0	0.000000	0.000000	0.000000	0.385087	0.000000	1.000000	-0.000019
0.975000	0.175000	0.000000	20	4	0	0.000000	0.000000	0.000000	0.214507	0.000000	1.000000	-0.000019
1.000000	0.175000	0.000000	21	4	0	0.000000	0.000000	0.000000	0.000000	0.000000	1.000000	0.000000
0.000000	0.225000	0.000000	0	5	0	0.000000	0.000000	0.000000	1.000000	0.000000	1.000000	0.000000
0.025000	0.225000	0.000000	1	5	0	0.000000	0.000000	0.000000	1.158391	0.000000	1.000000	-0.000024
0.075000	0.225000	0.000000	2	5	0	0.000000	0.000000	0.000000	1.308456	0.000000	1.000000	-0.000024
0.125000	0.225000	0.000000	3	5	0	0.000000	0.000000	0.000000	1.437833	0.000000	1.000000	-0.000024
0.175000	0.225000	0.000000	4	5	0	0.000000	0.000000	0.000000	1.562208	0.000000	1.000000	-0.000025
0.225000	0.225000	0.000000	5	5	0	0.000000	0.000000	0.000000	1.653725	0.000000	1.000000	-0.000025
0.275000	0.225000	0.000000	6	5	0	0.000000	0.000000	0.000000	1.627954	0.000000	1.000000	-0.000025
0.325000	0.225000	0.000000	7	5	0	0.000000	0.000000	0.000000	1.502203	0.000000	1.000000	-0.000025
0.375000	0.225000	0.000000	8	5	0	0.000000	0.000000	0.000000	1.367147	0.000000	1.000000	-0.000025
0.425000	0.225000	0.000000	9	5	0	0.000000	0.000000	0.000000	1.249620	0.000000	1.000000	-0.000024
0.475000	0.225000	0.000000	10	5	0	0.000000	0.000000	0.000000	1.148313	0.000000	1.000000	-0.000024
0.525000	0.225000	0.000000	11	5	0	0.000000	0.000000	0.000000	1.057872	0.000000	1.000000	-0.000024
0.575000	0.225000	0.000000	12	5	0	0.000000	0.000000	0.000000	0.974674	0.000000	1.000000	-0.000024
0.625000	0.225000	0.000000	13	5	0	0.000000	0.000000	0.000000	0.896595	0.000000	1.000000	-0.000024
0.675000	0.225000	0.000000	14	5	0	0.000000	0.000000	0.000000	0.821949	0.000000	1.000000	-0.000023
0.725000	0.225000	0.000000	15	5	0	0.000000	0.000000	0.000000	0.748848	0.000000	1.000000	-0.000023
0.775000	0.225000	0.000000	16	5	0	0.000000	0.000000	0.000000	0.674925	0.000000	1.000000	-0.000022
0.825000	0.225000	0.000000	17	5	0	0.000000	0.000000	0.000000	0.597106	0.000000	1.000000	-0.000021
0.875000	0.225000	0.000000	18	5	0	0.000000	0.000000	0.000000	0.504132	0.000000	1.000000	-0.000020
0.925000	0.225000	0.000000	19	5	0	0.000000	0.000000	0.000000	0.383498	0.000000	1.000000	-0.000019
0.975000	0.225000	0.000000	20	5	0	0.000000	0.000000	0.000000	0.214516	0.000000	1.000000	-0.000019
1.000000	0.225000	0.000000	21	5	0	0.000000	0.000000	0.000000	0.000000	0.000000	1.000000	0.000000
0.000000	0.275000	0.000000	0	6	0	0.000000	0.000000	0.000000	1.000000	0.000000	1.000000	0.000000
0.025000	0.275000	0.000000	1	6	0	0.000000	0.000000	0.000000	1.158553	0.000000	1.000000	-0.000024
0.075000	0.275000	0.000000	2	6	0	0.000000	0.000000	0.000000	1.309236	0.000000	1.000000	-0.000024
0.125000	0.275000	0.000000	3	6	0	0.000000	0.000000	0.000000	1.439244	0.000000	1.000000	-0.000024
0.175000	0.275000	0.000000	4	6	0	0.000000	0.000000	0.000000	1.563275	0.000000	1.000000	-0.000025
0.225000	0.275000	0.000000	5	6	0	0.000000	0.000000	0.000000	1.649675	0.000000	1.000000	-0.000025
0.275000	0.275000	0.000000	6	6	0	0.000000	0.000000	0.000000	1.612098	0.000000	1.000000	-0.000025
0.325000	0.275000	0.000000	7	6	0	0.000000	0.000000	0.000000	1.485400	0.000000	1.000000	-0.000025
0.375000	0.275000	0.000000	8	6	0	0.000000	0.000000	0.000000	1.353825	0.000000	1.000000	-0.000025
0.425000	0.275000	0.000000	9	6	0	0.000000	0.000000	0.000000	1.239880	0.000000	1.000000	-0.000024
0.475000	0.275000	0.000000	10	6	0	0.000000	0.000000	0.000000	1.141189	0.000000	1.000000	-0.000024
0.525000	0.275000	0.000000	11	6	0	0.000000	0.000000	0.000000	1.052379	0.000000	1.000000	-0.000024
0.575000	0.275000	0.000000	12	6	0	0.000000	0.000000	0.000000	0.970002	0.000000	1.000000	-0.000024
0.625000	0.275000	0.000000	13	6	0	0.000000	0.000000	0.000000	0.892157	0.000000	1.000000	-0.000024
0.675000	0.275000	0.000000	14	6	0	0.000000	0.000000	0.000000	0.817411	0.000000	1.000000	-0.000023
0.725000	0.275000	0.000000	15	6	0	0.000000	0.000000	0.000000	0.744118	0.000000	1.000000	-0.000023
0.775000	0.275000	0.000000	16	6	0	0.000000	0.000000	0.000000	0.670108	0.000000	1.000000	-0.000022
0.825000	0.275000	0.000000	17	6	0	0.000000	0.000000	0.000000	0.592428	0.000000	1.000000	-0.000021
0.875000	0.275000	0.000000	18	6	0	0.000000	0.000000	0.000000	0.500424	0.000000	1.000000	-0.000020
0.925000	0.275000	0.000000	19	6	0	0.000000	0.000000	0.000000	0.381203	0.000000	1.000000	-0.000019
0.975000	0.275000	0.000000	20	6	0	0.000000	0.000000	0.000000	0.213881	0.000000	1.000000	-0.000019
1.000000	0.275000	0.000000	21	6	0	0.000000	0.000000	0.000000	0.000000	0.000000	1.000000	0.000000
0.000000	0.325000	0.000000	0	7	0	0.000000	0.000000	0.000000	1.000000	0.000000	1.000000	0.000000
0.025000	0.325000	0.000000	1	7	0	0.000000	0.000000	0.000000	1.158794	0.000000	1.000000	-0.000024
0.075000	0.325000	0.000000	2	7	0	0.000000	0.000000	0.000000	1.310152	0.000000	1.000000	-0.000024
0.125000	0.325000	0.000000	3	7	0	0.000000	0.000000	0.000000	1.441000	0.000000	1.000000	-0.000024
0.175000	0.325000	0.000000	4	7	0	0.000000	0.000000	0.000000	1.565142	0.000000	1.000000	-0.000025
0.225000	0.325000	0.000000	5	7	0	0.000000	0.000000	0.000000	1.648388	0.000000	1.000000	-0.000025
0.275000	0.325000	0.000000	6	7	0	0.000000	0.000000	0.000000	1.604176	0.000000	1.000000	-0.000025
0.325000	0.325000	0.000000	7	7	0	0.000000	0.000000	0.000000	1.477687	0.000000	1.000000	-0.000025
0.375000	0.325000	0.000000	8	7	0	0.000000	0.000000	0.000000	1.348411	0.000000	1.000000	-0.000025
0.425000	0.325000	0.000000	9	7	0	0.000000	0.000000	0.000000	1.236317	0.000000	1.000000	-0.000024
0.475000	0.325000	0.000000	10	7	0	0.000000	0.000000	0.000000	1.138613	0.000000	1.000000	-0.000024
0.525000	0.325000	0.000000	11	7	0	0.000000	0.000000	0.000000	1.050088	0.000000	1.000000	-0.000024
0.575000	0.325000	0.000000	12	7	0	0.000000	0.000000	0.000000	0.967550	0.000000	1.000000	-0.000024
0.625000	0.325000	0.000000	13	7	0	0.000000	0.000000	0.000000	0.889349	0.000000	1.000000	-0.000024
0.675000	0.325000	0.000000	14	7	0	0.000000	0.000000	0.000000	0.814271	0.000000	1.000000	-0.000023
0.725000	0.325000	0.000000	15	7	0	0.000000	0.000000	0.000000	0.740813	0.000000	1.000000	-0.000023
0.775000	0.325000	0.000000	16	7	0	0.000000	0.000000	0.000000	0.666854	0.000000	1.000000	-0.000022
0.825000	0.325000	0.000000	17	7	0	0.000000	0.000000	0.000000	0.589435	0.000000	1.000000	-0.000021
0.875000	0.325000	0.000000	18	7	0	0.000000	0.000000	0.000000	0.498172	0.000000	1.000000	-0.000020
0.925000	0.325000	0.000000	19	7	0	0.000000	0.000000	0.000000	0.379859	0.000000	1.000000	-0.000019
0.975000	0.325000	0.000000	20	7	0	0.000000	0.000000	0.000000	0.213518	0.000000	1.000000	-0.000019
1.000000	0.325000	0.000000	21	7	0	0.000000	0.000000	0.000000	0.000000	0.000000	1.000000	0.000000
0.000000	0.375000	0.000000	0	8	0	0.000000	0.000000	0.000000	1.000000	0.000000	1.000000	0.000000
0.025000	0.375000	0.000000	1	8	0	0.000000	0.000000	0.000000	1.158999	0.000000	1.000000	-0.000024
0.075000	0.375000	0.000000	2	8	0	0.000000	0.000000	0.000000	1.310885	0.000000	1.000000	-0.000024
0.125000	0.375000	0.000000	3	8	0	0.000000	0.000000	0.000000	1.442439	0.000000	1.000000	-0.000024
0.175000	0.375000	0.000000	4	8	0	0.000000	0.000000	0.000000	1.566829	0.000000	1.000000	-0.000025
0.225000	0.375000	0.000000	5	8	0	0.000000	0.000000	0.000000	1.648373	0.000000	1.000000	-0.000025
0.275000	0.375000	0.000000	6	8	0	0.000000	0.000000	0.000000	1.600884	0.000000	1.000000	-0.000025
0.325000	0.375000	0.000000	7	8	0	0.000000	0.000000	0.000000	1.474855	0.000000	1.000000	-0.000025
0.375000	0.375000	0.000000	8	8	0	0.000000	0.000000	0.000000	1.346864	0.000000	1.000000	-0.000024
0.425000	0.375000	0.000000	9	8	0	0.000000	0.000000	0.000000	1.235585	0.000000	1.000000	-0.000024
0.475000	0.375000	0.000000	10	8	0	0.000000	0.000000	0.000000	1.138124	0.000000	1.000000	-0.000024
0.525000	0.375000	0.000000	11	8	0	0.000000	0.000000	0.000000	1.049455	0.000000	1.000000	-0.000024
0.575000	0.375000	0.000000	12	8	0	0.000000	0.000000	0.000000	0.966588	0.000000	1.000000	-0.000024
0.625000	0.375000	0.000000	13	8	0	0.000000	0.000000	0.000000	0.888050	0.000000	1.000000	-0.000024
0.675000	0.375000	0.000000	14	8	0	0.000000	0.000000	0.000000	0.812751	0.000000	1.000000	-0.000023
0.725000	0.375000	0.000000	15	8	0	0.000000	0.000000	0.000000	0.739240	0.000000	1.000000	-0.000023
0.775000	0.375000	0.000000	16	8	0	0.000000	0.000000	0.000000	0.665385	0.000000	1.000000	-0.000022
0.825000	0.375000	0.000000	17	8	0	0.000000	0.000000	0.000000	0.588182	0.000000	1.000000	-0.000021
0.875000	0.375000	0.000000	18	8	0	0.000000	0.000000	0.000000	0.497344	0.000000	1.000000	-0.000020
0.925000	0.375000	0.000000	19	8	0	0.000000	0.000000	0.000000	0.379449	0.000000	1.000000	-0.000019
0.975000	0.375000	0.000000	20	8	0	0.000000	0.000000	0.000000	0.213493	0.000000	1.000000	-0.000019
1.000000	0.375000	0.000000	21	8	0	0.000000	0.000000	0.000000	0.000000	0.000000	1.000000	0.000000
0.000000	0.425000	0.000000	0	9	0	0.000000	0.000000	0.000000	1.000000	0.000000	1.000000	0.000000
0.025000	0.425000	0.000000	1	9	0	0.000000	0.000000	0.000000	1.159135	0.000000	1.000000	-0.000024
0.075000	0.425000	0.000000	2	9	0	0.000000	0.000000	0.000000	1.311362	0.000000	1.000000	-0.000024
0.125000	0.425000	0.000000	3	9	0	0.000000	0.000000	0.000000	1.443386	0.000000	1.000000	-0.000024
0.175000	0.425000	0.000000	4	9	0	0.000000	0.000000	0.000000	1.568001	0.000000	1.000000	-0.000025
0.225000	0.425000	0.000000	5	9	0	0.000000	0.000000	0.000000	1.648757	0.000000	1.000000	-0.000025
0.275000	0.425000	0.000000	6	9	0	0.000000	0.000000	0.000000	1.599884	0.000000	1.000000	-0.000025
0.325000	0.425000	0.000000	7	9	0	0.000000	0.000000	0.000000	1.474242	0.000000	1.000000	-0.000025
0.375000	0.425000	0.000000	8	9	0	0.000000	0.000000	0.000000	1.346880	0.000000	1.000000	-0.000024
0.425000	0.425000	0.000000	9	9	0	0.000000	0.000000	0.000000	1.235901	0.000000	1.000000	-0.000024
0.475000	0.425000	0.000000	10	9	0	0.000000	0.000000	0.000000	1.138432	0.000000	1.000000	-0.000024
0.525000	0.425000	0.000000	11	9	0	0.000000	0.000000	0.000000	1.049577	0.000000	1.000000	-0.000024
0.575000	0.425000	0.000000	12	9	0	0.000000	0.000000	0.000000	0.966467	0.000000	1.000000	-0.000024
0.625000	0.425000	0.000000	13	9	0	0.000000	0.000000	0.000000	0.887723	0.000000	1.000000	-0.000024
0.675000	0.425000	0.000000	14	9	0	0.000000	0.000000	0.000000	0.812312	0.000000	1.000000	-0.000023
0.725000	0.425000	0.000000	15	9	0	0.000000	0.000000	0.000000	0.738793	0.000000	1.000000	-0.000023
0.775000	0.425000	0.000000	16	9	0	0.000000	0.000000	0.000000	0.665009	0.000000	1.000000	-0.000022
0.825000	0.425000	0.000000	17	9	0	0.000000	0.000000	0.000000	0.587916	0.000000	1.000000	-0.000021
0.875000	0.425000	0.000000	18	9	0	0.000000	0.000000	0.000000	0.497265	0.000000	1.000000	-0.000020
0.925000	0.425000	0.000000	19	9	0	0.000000	0.000000	0.000000	0.379502	0.000000	1.000000	-0.000019
0.975000	0.425000	0.000000	20	9	0	0.000000	0.000000	0.000000	0.213617	0.000000	1.000000	-0.000019
1.000000	0.425000	0.000000	21	9	0	0.000000	0.000000	0.000000	0.000000	0.000000	1.000000	0.000000
0.000000	0.475000	0.000000	0	10	0	0.000000	0.000000	0.000000	1.000000	0.000000	1.000000	0.000000
0.025000	0.475000	0.000000	1	10	0	0.000000	0.000000	0.000000	1.159202	0.000000	1.000000	-0.000024
0.075000	0.475000	0.000000	2	10	0	0.000000	0.000000	0.000000	1.311592	0.000000	1.000000	-0.000024
0.125000	0.475000	0.000000	3	10	0	0.000000	0.000000	0.000000	1.443844	0.000000	1.000000	-0.000024
0.175000	0.475000	0.000000	4	10	0	0.000000	0.000000	0.000000	1.568586	0.000000	1.000000	-0.000025
0.225000	0.475000	0.000000	5	10	0	0.000000	0.000000	0.000000	1.649057	0.000000	1.000000	-0.000025
0.275000	0.475000	0.000000	6	10	0	0.000000	0.000000	0.000000	1.599729	0.000000	1.000000	-0.000025
0.325000	0.475000	0.000000	7	10	0	0.000000	0.000000	0.000000	1.474297	0.000000	1.000000	-0.000025
0.375000	0.475000	0.000000	8	10	0	0.000000	0.000000	0.000000	1.347181	0.000000	1.000000	-0.000024
0.425000	0.475000	0.000000	9	10	0	0.000000	0.000000	0.000000	1.236287	0.000000	1.000000	-0.000024
0.475000	0.475000	0.000000	10	10	0	0.000000	0.000000	0.000000	1.138776	0.000000	1.000000	-0.000024
0.525000	0.475000	0.000000	11	10	0	0.000000	0.000000	0.000000	1.049813	0.000000	1.000000	-0.000024
0.575000	0.475000	0.000000	12	10	0	0.000000	0.000000	0.000000	0.966584	0.000000	1.000000	-0.000024
0.625000	0.475000	0.000000	13	10	0	0.000000	0.000000	0.000000	0.887747	0.000000	1.000000	-0.000024
0.675000	0.475000	0.000000	14	10	0	0.000000	0.000000	0.000000	0.812290	0.000000	1.000000	-0.000023
0.725000	0.475000	0.000000	15	10	0	0.000000	0.000000	0.000000	0.738769	0.000000	1.000000	-0.000023
0.775000	0.475000	0.000000	16	10	0	0.000000	0.000000	0.000000	0.665011	0.000000	1.000000	-0.000022
0.825000	0.475000	0.000000	17	10	0	0.000000	0.000000	0.000000	0.587958	0.000000	1.000000	-0.000021
0.875000	0.475000	0.000000	18	10	0	0.000000	0.000000	0.000000	0.497366	0.000000	1.000000	-0.000020
0.925000	0.475000	0.000000	19	10	0	0.000000	0.000000	0.000000	0.379624	0.000000	1.000000	-0.000019
0.975000	0.475000	0.000000	20	10	0	0.000000	0.000000	0.000000	0.213721	0.000000	1.000000	-0.000019
1.000000	0.475000	0.000000	21	10	0	0.000000	0.000000	0.000000	0.000000	0.000000	1.000000	0.000000
0.000000	0.525000	0.000000	0	11	0	0.000000	0.000000	0.000000	1.000000	0.000000	1.000000	0.000000
0.025000	0.525000	0.000000	1	11	0	0.000000	0.000000	0.000000	1.159202	0.000000	1.000000	-0.000024
0.075000	0.525000	0.000000	2	11	0	0.000000	0.000000	0.000000	1.311592	0.000000	1.000000	-0.000024
0.125000	0.525000	0.000000	3	11	0	0.000000	0.000000	0.000000	1.443844	0.000000	1.000000	-0.000024
0.175000	0.525000	0.000000	4	11	0	0.000000	0.000000	0.000000	1.568586	0.000000	1.000000	-0.000025
0.225000	0.525000	0.000000	5	11	0	0.000000	0.000000	0.000000	1.649057	0.000000	1.000000	-0.000025
0.275000	0.525000	0.000000	6	11	0	0.000000	0.000000	0.000000	1.599729	0.000000	1.000000	-0.000025
0.325000	0.525000	0.000000	7	11	0	0.000000	0.000000	0.000000	1.474297	0.000000	1.000000	-0.000025
0.375000	0.525000	0.000000	8	11	0	0.000000	0.000000	0.000000	1.347181	0.000000	1.000000	-0.000024
0.425000	0.525000	0.000000	9	11	0	0.000000	0.000000	0.000000	1.236287	0.000000	1.000000	-0.000024
0.475000	0.525000	0.000000	10	11	0	0.000000	0.000000	0.000000	1.138776	0.000000	1.000000	-0.000024
0.525000	0.525000	0.000000	11	11	0	0.000000	0.000000	0.000000	1.049813	0.000000	1.000000	-0.000024
0.575000	0.525000	0.000000	12	11	0	0.000000	0.000000	0.000000	0.966584	0.000000	1.000000	-0.000024
0.625000	0.525000	0.000000	13	11	0	0.000000	0.000000	0.000000	0.887747	0.000000	1.000000	-0.000024
0.675000	0.525000	0.000000	14	11	0	0.000000	0.000000	0.000000	0.812290	0.000000	1.000000	-0.000023
0.725000	0.525000	0.000000	15	11	0	0.000000	0.000000	0.000000	0.738769	0.000000	1.000000	-0.000023
0.775000	0.525000	0.000000	16	11	0	0.000000	0.000000	0.000000	0.665011	0.000000	1.000000	-0.000022
0.825000	0.525000	0.000000	17	11	0	0.000000	0.000000	0.000000	0.587958	0.000000	1.000000	-0.000021
0.875000	0.525000	0.000000	18	11	0	0.000000	0.000000	0.000000	0.497366	0.000000	1.000000	-0.000020
0.925000	0.525000	0.000000	19	11	0	0.000000	0.000000	0.000000	0.379624	0.000000	1.000000	-0.000019
0.975000	0.525000	0.000000	20	11	0	0.000000	0.000000	0.000000	0.213721	0.000000	1.000000	-0.000019
1.000000	0.525000	0.000000	21	11	0	0.000000	0.000000	0.000000	0.000000	0.000000	1.000000	0.000000
0.000000	0.575000	0.000000	0	12	0	0.000000	0.000000	0.000000	1.000000	0.000000	1.000000	0.000000
0.025000	0.575000	0.000000	1	12	0	0.000000	0.000000	0.000000	1.159135	0.000000	1.000000	-0.000024
0.075000	0.575000	0.000000	2	12	0	0.000000	0.000000	0.000000	1.311362	0.000000	1.000000	-0.000024
0.125000	0.575000	0.000000	3	12	0	0.000000	0.000000	0.000000	1.443386	0.000000	1.000000	-0.000024
0.175000	0.575000	0.000000	4	12	0	0.000000	0.000000	0.000000	1.568001	0.000000	1.000000	-0.000025
0.225000	0.575000	0.000000	5	12	0	0.000000	0.000000	0.000000	1.648757	0.000000	1.000000	-0.000025
0.275000	0.575000	0.000000	6	12	0	0.000000	0.000000	0.000000	1.599884	0.000000	1.000000	-0.000025
0.325000	0.575000	0.000000	7	12	0	0.000000	0.000000	0.000000	1.474242	0.000000	1.000000	-0.000025
0.375000	0.575000	0.000000	8	12	0	0.000000	0.000000	0.000000	1.346880	0.000000	1.000000	-0.000024
0.425000	0.575000	0.000000	9	12	0	0.000000	0.000000	0.000000	1.235901	0.000000	1.000000	-0.000024
0.475000	0.575000	0.000000	10	12	0	0.000000	0.000000	0.000000	1.138432	0.000000	1.000000	-0.000024
0.525000	0.575000	0.000000	11	12	0	0.000000	0.000000	0.000000	1.049577	0.000000	1.000000	-0.000024
0.575000	0.575000	0.000000	12	12	0	0.000000	0.000000	0.000000	0.966467	0.000000	1.000000	-0.000024
0.625000	0.575000	0.000000	13	12	0	0.000000	0.000000	0.000000	0.887723	0.000000	1.000000	-0.000024
0.675000	0.575000	0.000000	14	12	0	0.000000	0.000000	0.000000	0.812312	0.000000	1.000000	-0.000023
0.725000	0.575000	0.000000	15	12	0	0.000000	0.000000	0.000000	0.738793	0.000000	1.000000	-0.000023
0.775000	0.575000	0.000000	16	12	0	0.000000	0.000000	0.000000	0.665009	0.000000	1.000000	-0.000022
0.825000	0.575000	0.000000	17	12	0	0.000000	0.000000	0.000000	0.587916	0.000000	1.000000	-0.000021
0.875000	0.575000	0.000000	18	12	0	0.000000	0.000000	0.000000	0.497265	0.000000	1.000000	-0.000020
0.925000	0.575000	0.000000	19	12	0	0.000000	0.000000	0.000000	0.379502	0.000000	1.000000	-0.000019
0.975000	0.575000	0.000000	20	12	0	0.000000	0.000000	0.000000	0.213617	0.000000	1.000000	-0.000019
1.000000	0.575000	0.000000	21	12	0	0.000000	0.000000	0.000000	0.000000	0.000000	1.000000	0.000000
0.000000	0.625000	0.000000	0	13	0	0.000000	0.000000	0.000000	1.000000	0.000000	1.000000	0.000000
0.025000	0.625000	0.000000	1	13	0	0.000000	0.000000	0.000000	1.158999	0.000000	1.000000	-0.000024
0.075000	0.625000	0.000000	2	13	0	0.000000	0.000000	0.000000	1.310885	0.000000	1.000000	-0.000024
0.125000	0.625000	0.000000	3	13	0	0.000000	0.000000	0.000000	1.442439	0.000000	1.000000	-0.000024
0.175000	0.625000	0.000000	4	13	0	0.000000	0.000000	0.000000	1.566829	0.000000	1.000000	-0.000025
0.225000	0.625000	0.000000	5	13	0	0.000000	0.000000	0.000000	1.648373	0.000000	1.000000	-0.000025
0.275000	0.625000	0.000000	6	13	0	0.000000	0.000000	0.000000	1.600884	0.000000	1.000000	-0.000025
0.325000	0.625000	0.000000	7	13	0	0.000000	0.000000	0.000000	1.474855	0.000000	1.000000	-0.000025
0.375000	0.625000	0.000000	8	13	0	0.000000	0.000000	0.000000	1.346864	0.000000	1.000000	-0.000024
0.425000	0.625000	0.000000	9	13	0	0.000000	0.000000	0.000000	1.235585	0.000000	1.000000	-0.000024
0.475000	0.625000	0.000000	10	13	0	0.000000	0.000000	0.000000	1.138124	0.000000	1.000000	-0.000024
0.525000	0.625000	0.000000	11	13	0	0.000000	0.000000	0.000000	1.049455	0.000000	1.000000	-0.000024
0.575000	0.625000	0.000000	12	13	0	0.000000	0.000000	0.000000	0.966588	0.000000	1.000000	-0.000024
0.625000	0.625000	0.000000	13	13	0	0.000000	0.000000	0.000000	0.888050	0.000000	1.000000	-0.000024
0.675000	0.625000	0.000000	14	13	0	0.000000	0.000000	0.000000	0.812751	0.000000	1.000000	-0.000023
0.725000	0.625000	0.000000	15	13	0	0.000000	0.000000	0.000000	0.739240	0.000000	1.000000	-0.000023
0.775000	0.625000	0.000000	16	13	0	0.000000	0.000000	0.000000	0.665385	0.000000	1.000000	-0.000022
0.825000	0.625000	0.000000	17	13	0	0.000000	0.000000	0.000000	0.588182	0.000000	1.000000	-0.000021
0.875000	0.625000	0.000000	18	13	0	0.000000	0.000000	0.000000	0.497344	0.000000	1.000000	-0.000020