VARIABLES = "X"
 "Y"
 "Z"
 "I"
 "J"
 "K"
 "U"
 "V"
 "W"
 "T"
 "Xi"
 "FlagP"
 "P"
ZONE
DT=(DOUBLE,DOUBLE,DOUBLE,DOUBLE,DOUBLE,DOUBLE,DOUBLE,DOUBLE,DOUBLE,DOUBLE,DOUBLE,DOUBLE,DOUBLE)
                    0.5                     0.5                       0                     5.5                     5.5                       0                       0                       0                       0         19.266939163208                       0                       1      0.0537542514503002 
                    0.5                     0.5      0.0101010101010101                     5.5                     5.5       0.202020199009866     0.00027520205377855    0.000251919271979066     0.00515540395565933        18.7507220065813                       0       0.595959601980267      0.0537542514503002 
                    0.5                     0.5      0.0202020202020202                     5.5                     5.5       0.404040398019733    0.000550404107557101    0.000503838543958132      0.0103108079113187        18.2345048499545                       0       0.191919203960534      0.0537542514503002 
                    0.5                     0.5      0.0303030303030303                     5.5                     5.5       0.606060597029599    0.000825606161335651    0.000755757815937198       0.015466211866978        17.7182876933278                       0      -0.212121194059199      0.0537542514503002 
                    0.5                     0.5      0.0404040404040404                     5.5                     5.5       0.808080796039466      0.0011008082151142     0.00100767708791626      0.0206216158226373        17.2020705367011                       0      -0.616161592078932      0.0537542514503002 
                    0.5                     0.5      0.0505050505050505                     5.5                     5.5        1.00505049733652      0.0013528310089786     0.00124427188173026      0.0256582396427941        16.7116342072993                       0                      -1      0.0536919914459617 
                    0.5                     0.5      0.0606060606060606                     5.5                     5.5        1.10606059307853     0.00116444718058531      0.0011897011382693      0.0284380373838725        16.7110343558187                       0                      -1      0.0524467895222503 
                    0.5                     0.5      0.0707070707070707                     5.5                     5.5        1.20707068882055    0.000976063352192026     0.00113513039480834      0.0312178351249509         16.710434504338                       0                      -1      0.0512015875985389 
                    0.5                     0.5      0.0808080808080808                     5.5                     5.5        1.30808078456256    0.000787679523798738     0.00108055965134738      0.0339976328660292        16.7098346528573                       0                      -1      0.0499563856748276 
                    0.5                     0.5      0.0909090909090909                     5.5                     5.5        1.40909088030458     0.00059929569540545     0.00102598890788643      0.0367774306071076        16.7092348013767                       0                      -1      0.0487111837511162 
                    0.5                     0.5       0.101010101010101                     5.5                     5.5        1.51010097604659    0.000410911867012163    0.000971418164425467       0.039557228348186         16.708634949896                       0                      -1      0.0474659818274049 
                    0.5                     0.5       0.111111111111111                     5.5                     5.5         1.6111110717886    0.000222528038618875    0.000916847420964508      0.0423370260892644        16.7080350984153                       0                      -1      0.0462207799036935 
                    0.5                     0.5       0.121212121212121                     5.5                     5.5        1.71212116753062   3.41442102255876E-005    0.000862276677503549      0.0451168238303428        16.7074352469347                       0                      -1      0.0449755779799821 
                    0.5                     0.5       0.131313131313131                     5.5                     5.5        1.81313126327263     -0.0001542396181677     0.00080770593404259      0.0478966215714211         16.706835395454                       0                      -1      0.0437303760562708 
                    0.5                     0.5       0.141414141414141                     5.5                     5.5        1.91414135901465   -0.000342623446560987    0.000753135190581631      0.0506764193124995        16.7062355439734                       0                      -1      0.0424851741325594 
                    0.5                     0.5       0.151515151515152                     5.5                     5.5        2.01515145644997   -0.000525575483711138    0.000713545456129881      0.0530084045105572        16.7057679492584                       0                      -1      0.0412434494225547 
                    0.5                     0.5       0.161616161616162                     5.5                     5.5        2.11616156348074   -0.000677747228028559     0.00075884849895779      0.0528027735537669        16.7060498130176                       0                      -1      0.0400214290147479 
                    0.5                     0.5       0.171717171717172                     5.5                     5.5        2.21717167051151   -0.000829918972345979    0.000804151541785698      0.0525971425969765        16.7063316767768                       0                      -1      0.0387994086069412 
                    0.5                     0.5       0.181818181818182                     5.5                     5.5        2.31818177754229   -0.000982090716663398    0.000849454584613607      0.0523915116401862         16.706613540536                       0                      -1      0.0375773881991344 
                    0.5                     0.5       0.191919191919192                     5.5                     5.5        2.41919188457306    -0.00113426246098082    0.000894757627441515      0.0521858806833959        16.7068954042952                       0                      -1      0.0363553677913276 
                    0.5                     0.5       0.202020202020202                     5.5                     5.5        2.52020199160383    -0.00128643420529824    0.000940060670269424      0.0519802497266055        16.7071772680544                       0                      -1      0.0351333473835209 
                    0.5                     0.5       0.212121212121212                     5.5                     5.5         2.6212120986346    -0.00143860594961566    0.000985363713097333      0.0517746187698152        16.7074591318136                       0                      -1      0.0339113269757141 
                    0.5                     0.5       0.222222222222222                     5.5                     5.5        2.72222220566538    -0.00159077769393308     0.00103066675592524      0.0515689878130248        16.7077409955728                       0                      -1      0.0326893065679074 
                    0.5                     0.5       0.232323232323232                     5.5                     5.5        2.82323231269615     -0.0017429494382505     0.00107596979875315      0.0513633568562345         16.708022859332                       0                      -1      0.0314672861601006 
                    0.5                     0.5       0.242424242424242                     5.5                     5.5        2.92424241972692    -0.00189512118256792     0.00112127284158106      0.0511577258994441        16.7083047230912                       0                      -1      0.0302452657522939 
                    0.5                     0.5       0.252525252525253                     5.5                     5.5        3.02525252675769    -0.00205298105628314     0.00112619708798694      0.0508138056204596        16.7086870116519                       0                      -1      0.0290462882889258 
                    0.5                     0.5       0.262626262626263                     5.5                     5.5        3.12626263378847    -0.00222790531819179     0.00100998494512674      0.0500550173748924        16.7093705746168                       0                      -1      0.0279164396588737 
                    0.5                     0.5       0.272727272727273                     5.5                     5.5        3.22727274081924    -0.00240282958010042    0.000893772802266543      0.0492962291293252        16.7100541375817                       0                      -1      0.0267865910288217 
                    0.5                     0.5       0.282828282828283                     5.5                     5.5        3.32828284785001    -0.00257775384200907    0.000777560659406345       0.048537440883758        16.7107377005466                       0                      -1      0.0256567423987697 
                    0.5                     0.5       0.292929292929293                     5.5                     5.5        3.42929295488078    -0.00275267810391771    0.000661348516546147      0.0477786526381908        16.7114212635115                       0                      -1      0.0245268937687177 
                    0.5                     0.5       0.303030303030303                     5.5                     5.5        3.53030306191156    -0.00292760236582635    0.000545136373685949      0.0470198643926237        16.7121048264764                       0                      -1      0.0233970451386656 
                    0.5                     0.5       0.313131313131313                     5.5                     5.5        3.63131316894233    -0.00310252662773499     0.00042892423082575      0.0462610761470564        16.7127883894413                       0                      -1      0.0222671965086136 
                    0.5                     0.5       0.323232323232323                     5.5                     5.5         3.7323232759731    -0.00327745088964363    0.000312712087965551      0.0455022879014893        16.7134719524062                       0                      -1      0.0211373478785616 
                    0.5                     0.5       0.333333333333333                     5.5                     5.5        3.83333338300387    -0.00345237515155227    0.000196499945105353      0.0447434996559221        16.7141555153711                       0                      -1      0.0200074992485095 
                    0.5                     0.5       0.343434343434343                     5.5                     5.5        3.93434349003465    -0.00362729941346091    8.0287802245155E-005      0.0439847114103549         16.714839078336                       0                      -1      0.0188776506184575 
                    0.5                     0.5       0.353535353535354                     5.5                     5.5        4.03535359706542    -0.00361950743994895  -5.68625053404132E-005      0.0431649295058482        16.7154471515855                       0                      -1      0.0177476164197067 
                    0.5                     0.5       0.363636363636364                     5.5                     5.5        4.13636370409619    -0.00327238619508939   -0.000232897875127817      0.0422318739571185        16.7159150300129                       0                      -1      0.0166172375942665 
                    0.5                     0.5       0.373737373737374                     5.5                     5.5        4.23737381112696    -0.00292526495022984   -0.000408933244915221      0.0412988184083889        16.7163829084403                       0                      -1      0.0154868587688262 
                    0.5                     0.5       0.383838383838384                     5.5                     5.5        4.33838391815774    -0.00257814370537028   -0.000584968614702624      0.0403657628596593        16.7168507868676                       0                      -1       0.014356479943386 
                    0.5                     0.5       0.393939393939394                     5.5                     5.5        4.43939402518851    -0.00223102246051073   -0.000761003984490028      0.0394327073109297         16.717318665295                       0                      -1      0.0132261011179457 
                    0.5                     0.5       0.404040404040404                     5.5                     5.5        4.54040413221928    -0.00188390121565117   -0.000937039354277432      0.0384996517622001        16.7177865437223                       0                      -1      0.0120957222925055 
                    0.5                     0.5       0.414141414141414                     5.5                     5.5        4.64141423925005    -0.00153677997079162    -0.00111307472406484      0.0375665962134704        16.7182544221497                       0                      -1      0.0109653434670652 
                    0.5                     0.5       0.424242424242424                     5.5                     5.5        4.74242434628083    -0.00118965872593207    -0.00128911009385224      0.0366335406647408        16.7187223005771                       0                      -1     0.00983496464162496 
                    0.5                     0.5       0.434343434343434                     5.5                     5.5         4.8434344533116   -0.000842537481072511    -0.00146514546363964      0.0357004851160112        16.7191901790044                       0                      -1     0.00870458581618471 
                    0.5                     0.5       0.444444444444444                     5.5                     5.5        4.94444456034237   -0.000495416236212958    -0.00164118083342705      0.0347674295672816        16.7196580574318                       0                      -1     0.00757420699074446 
                    0.5                     0.5       0.454545454545455                     5.5                     5.5         5.0454546538266   -0.000258431679915942    -0.00174210235840725      0.0335605325655643         16.720224944766                       0                      -1     0.00644883968037328 
                    0.5                     0.5       0.464646464646465                     5.5                     5.5        5.14646473075402   -0.000156057989986023     -0.0017512185108306      0.0320189420505865        16.7209128424094                       0                      -1     0.00532959752587944 
                    0.5                     0.5       0.474747474747475                     5.5                     5.5        5.24747480768145  -5.36843000561037E-005    -0.00176033466325395      0.0304773515356086        16.7216007400528                       0                      -1      0.0042103553713856 
                    0.5                     0.5       0.484848484848485                     5.5                     5.5        5.34848488460887   4.86893898738155E-005     -0.0017694508156773      0.0289357610206307        16.7222886376963                       0                      -1     0.00309111321689175 
                    0.5                     0.5       0.494949494949495                     5.5                     5.5        5.44949496153629    0.000151063079803734    -0.00177856696810065      0.0273941705056529        16.7229765353397                       0                      -1     0.00197187106239791 
                    0.5                     0.5       0.505050505050505                     5.5                     5.5        5.55050503846371    0.000253436769733654      -0.001787683120524       0.025852579990675        16.7236644329831                       0                      -1    0.000852628907904068 
                    0.5                     0.5       0.515151515151515                     5.5                     5.5        5.65151511539113    0.000355810459663572    -0.00179679927294736      0.0243109894756971        16.7243523306265                       0                      -1   -0.000266613246589768 
                    0.5                     0.5       0.525252525252525                     5.5                     5.5        5.75252519231855    0.000458184149593492    -0.00180591542537071      0.0227693989607193        16.7250402282699                       0                      -1    -0.00138585540108362 
                    0.5                     0.5       0.535353535353535                     5.5                     5.5        5.85353526924598     0.00056055783952341    -0.00181503157779406      0.0212278084457414        16.7257281259133                       0                      -1    -0.00250509755557745 
                    0.5                     0.5       0.545454545454545                     5.5                     5.5         5.9545453461734     0.00066293152945333    -0.00182414773021741      0.0196862179307635        16.7264160235567                       0                      -1    -0.00362433971007129 
                    0.5                     0.5       0.555555555555556                     5.5                     5.5        6.05555545621445    0.000669861001021548    -0.00176050012576502      0.0180811686503749        16.7310308273473                       0                      -1     -0.0047476516899338 
                    0.5                     0.5       0.565656565656566                     5.5                     5.5        6.15656559334859    0.000598699376109259    -0.00163731825453355      0.0164241983143446        16.7388585696696                       0                      -1    -0.00587429354279415 
                    0.5                     0.5       0.575757575757576                     5.5                     5.5        6.25757573048273     0.00052753775119697    -0.00151413638330207      0.0147672279783142         16.746686311992                       0                      -1    -0.00700093539565452 
                    0.5                     0.5       0.585858585858586                     5.5                     5.5        6.35858586761687    0.000456376126284682     -0.0013909545120706      0.0131102576422839        16.7545140543143                       0                      -1    -0.00812757724851487 
                    0.5                     0.5       0.595959595959596                     5.5                     5.5        6.45959600475101    0.000385214501372394    -0.00126777264083912      0.0114532873062536        16.7623417966366                       0                      -1    -0.00925421910137522 
                    0.5                     0.5       0.606060606060606                     5.5                     5.5        6.56060614188515    0.000314052876460105    -0.00114459076960764     0.00979631697022332         16.770169538959                       0                      -1     -0.0103808609542356 
                    0.5                     0.5       0.616161616161616                     5.5                     5.5        6.66161627901929    0.000242891251547817    -0.00102140889837617     0.00813934663419303        16.7779972812813                       0                      -1     -0.0115075028070959 
                    0.5                     0.5       0.626262626262626                     5.5                     5.5        6.76262641615343    0.000171729626635528   -0.000898227027144691     0.00648237629816271        16.7858250236036                       0                      -1     -0.0126341446599563 
                    0.5                     0.5       0.636363636363636                     5.5                     5.5        6.86363655328757    0.000100568001723239   -0.000775045155913216     0.00482540596213241         16.793652765926                       0                      -1     -0.0137607865128166 
                    0.5                     0.5       0.646464646464647                     5.5                     5.5        6.96464669042172   2.94063768109502E-005   -0.000651863284681739      0.0031684356261021        16.8014805082483                       0                      -1      -0.014887428365677 
                    0.5                     0.5       0.656565656565657                     5.5                     5.5        7.06565678842135   -0.000146756840206884   -0.000529846874221543     0.00256959077333152        16.8174078358045                       0                      -1     -0.0160190432413781 
                    0.5                     0.5       0.666666666666667                     5.5                     5.5        7.16666686534877   -0.000379458789449666   -0.000408458013050313     0.00254049988484635        16.8376964332376                       0                      -1     -0.0171533358708266 
                    0.5                     0.5       0.676767676767677                     5.5                     5.5        7.26767694227619    -0.00061216073869245   -0.000287069151879082     0.00251140899636118        16.8579850306707                       0                      -1     -0.0182876285002752 
                    0.5                     0.5       0.686868686868687                     5.5                     5.5        7.36868701920361   -0.000844862687935231   -0.000165680290707852     0.00248231810787602        16.8782736281038                       0                      -1     -0.0194219211297237 
                    0.5                     0.5       0.696969696969697                     5.5                     5.5        7.46969709613104    -0.00107756463717802  -4.42914295366204E-005     0.00245322721939085        16.8985622255369                       0                      -1     -0.0205562137591722 
                    0.5                     0.5       0.707070707070707                     5.5                     5.5        7.57070717305846     -0.0013102665864208   7.70974316346097E-005     0.00242413633090568        16.9188508229699                       0                      -1     -0.0216905063886207 
                    0.5                     0.5       0.717171717171717                     5.5                     5.5        7.67171724998588    -0.00154296853566358     0.00019848629280584     0.00239504544242052         16.939139420403                       0                      -1     -0.0228247990180693 
                    0.5                     0.5       0.727272727272727                     5.5                     5.5         7.7727273269133    -0.00177567048490636     0.00031987515397707     0.00236595455393535        16.9594280178361                       0                      -1     -0.0239590916475178 
                    0.5                     0.5       0.737373737373737                     5.5                     5.5        7.87373740384072    -0.00200837243414915      0.0004412640151483     0.00233686366545018        16.9797166152692                       0                      -1     -0.0250933842769663 
                    0.5                     0.5       0.747474747474748                     5.5                     5.5        7.97474748076815    -0.00224107438339193    0.000562652876319532     0.00230777277696502        17.0000052127023                       0                      -1     -0.0262276769064148 
                    0.5                     0.5       0.757575757575758                     5.5                     5.5        8.07575755769557    -0.00210523476976674    0.000678947033809899     0.00247118183554405        17.0159048141327                       0                      -1     -0.0273200566786483 
                    0.5                     0.5       0.767676767676768                     5.5                     5.5        8.17676763462299     -0.0018465479685189     0.00079354295673998     0.00269875754314449        17.0303414168957                       0                      -1     -0.0283984654984767 
                    0.5                     0.5       0.777777777777778                     5.5                     5.5        8.27777771155041    -0.00158786116727106    0.000908138879670062     0.00292633325074492        17.0447780196586                       0                      -1     -0.0294768743183052 
                    0.5                     0.5       0.787878787878788                     5.5                     5.5        8.37878778847783    -0.00132917436602322     0.00102273480260014     0.00315390895834536        17.0592146224215                       0                      -1     -0.0305552831381336 
                    0.5                     0.5       0.797979797979798                     5.5                     5.5        8.47979786540526    -0.00107048756477538     0.00113733072553022     0.00338148466594579        17.0736512251844                       0                      -1      -0.031633691957962 
                    0.5                     0.5       0.808080808080808                     5.5                     5.5        8.58080794233268   -0.000811800763527536      0.0012519266484603     0.00360906037354623        17.0880878279473                       0                      -1     -0.0327121007777905 
                    0.5                     0.5       0.818181818181818                     5.5                     5.5         8.6818180192601   -0.000553113962279692     0.00136652257139038     0.00383663608114667        17.1025244307102                       0                      -1     -0.0337905095976189 
                    0.5                     0.5       0.828282828282828                     5.5                     5.5        8.78282809618752   -0.000294427161031852     0.00148111849432047      0.0040642117887471        17.1169610334732                       0                      -1     -0.0348689184174473 
                    0.5                     0.5       0.838383838383838                     5.5                     5.5        8.88383817311494   -3.5740359784011E-005     0.00159571441725055     0.00429178749634754        17.1313976362361                       0                      -1     -0.0359473272372758 
                    0.5                     0.5       0.848484848484849                     5.5                     5.5        8.98484825004237    0.000222946441463832     0.00171031034018063     0.00451936320394797         17.145834238999                       0                      -1     -0.0370257360571042 
                    0.5                     0.5       0.858585858585859                     5.5                     5.5        9.08585837814536    0.000395667692747078     0.00169777155418907     0.00417072197433037        17.1637921384744                       0                      -1      -0.038047113916178 
                    0.5                     0.5       0.868686868686869                     5.5                     5.5         9.1868685152795    0.000553218272017434     0.00166279681598992     0.00372039352039548        17.1823714547557                       0                      -1     -0.0390584273017442 
                    0.5                     0.5       0.878787878787879                     5.5                     5.5        9.28787865241364    0.000710768851287789     0.00162782207779077     0.00327006506646061        17.2009507710371                       0                      -1     -0.0400697406873104 
                    0.5                     0.5       0.888888888888889                     5.5                     5.5        9.38888878954778    0.000868319430558144     0.00159284733959162     0.00281973661252573        17.2195300873185                       0                      -1     -0.0410810540728765 
                    0.5                     0.5       0.898989898989899                     5.5                     5.5        9.48989892668192      0.0010258700098285     0.00155787260139248     0.00236940815859085        17.2381094035999                       0                      -1     -0.0420923674584427 
                    0.5                     0.5       0.909090909090909                     5.5                     5.5        9.59090906381606     0.00118342058909886     0.00152289786319333     0.00191907970465597        17.2566887198813                       0                      -1     -0.0431036808440089 
                    0.5                     0.5       0.919191919191919                     5.5                     5.5         9.6919192009502     0.00134097116836921     0.00148792312499418     0.00146875125072109        17.2752680361626                       0                      -1      -0.044114994229575 
                    0.5                     0.5       0.929292929292929                     5.5                     5.5        9.79292933808434     0.00149852174763957     0.00145294838679503     0.00101842279678622         17.293847352444                       0                      -1     -0.0451263076151412 
                    0.5                     0.5       0.939393939393939                     5.5                     5.5        9.89393947521848     0.00165607232690992     0.00141797364859589    0.000568094342851335        17.3124266687254                       0                      -1     -0.0461376210007074 
                    0.5                     0.5        0.94949494949495                     5.5                     5.5        9.99494961235263     0.00181362290618028     0.00138299891039674    0.000117765888916459        17.3310059850068                       0                      -1     -0.0471489343862735 