TITLE = "dt=1.000000s, t=7260.000000s, nu=0.000016, Lx=1.000000, Ly=1.000000, Lz=1.000000, Nx=12, Ny=12, Nz=12 "
VARIABLES =X, Y, Z, I, J, K, U, V, W, T, Xi, FlagP, P 
ZONE F=POINT, I=12, J=12, K=12
0.000000	0.000000	0.000000	0	0	0	0.000000	0.000000	0.000000	19.263542	0.000000	1.000000	0.000000
0.050000	0.000000	0.000000	1	0	0	0.000000	0.000000	0.000000	19.261779	0.000000	1.000000	0.000000
0.150000	0.000000	0.000000	2	0	0	0.000000	0.000000	0.000000	19.261779	0.000000	1.000000	0.000000
0.250000	0.000000	0.000000	3	0	0	0.000000	0.000000	0.000000	19.261779	0.000000	1.000000	0.000000
0.350000	0.000000	0.000000	4	0	0	0.000000	0.000000	0.000000	19.261779	0.000000	1.000000	0.000000
0.450000	0.000000	0.000000	5	0	0	0.000000	0.000000	0.000000	19.261779	0.000000	1.000000	0.000000
0.550000	0.000000	0.000000	6	0	0	0.000000	0.000000	0.000000	19.261779	0.000000	1.000000	0.000000
0.650000	0.000000	0.000000	7	0	0	0.000000	0.000000	0.000000	19.261779	0.000000	1.000000	0.000000
0.750000	0.000000	0.000000	8	0	0	0.000000	0.000000	0.000000	19.261779	0.000000	1.000000	0.000000
0.850000	0.000000	0.000000	9	0	0	0.000000	0.000000	0.000000	19.261779	0.000000	1.000000	0.000000
0.950000	0.000000	0.000000	10	0	0	0.000000	0.000000	0.000000	19.261779	0.000000	1.000000	0.000000
1.000000	0.000000	0.000000	11	0	0	0.000000	0.000000	0.000000	19.263542	0.000000	1.000000	0.000000
0.000000	0.050000	0.000000	0	1	0	0.000000	0.000000	0.000000	19.267068	0.000000	1.000000	0.000000
0.050000	0.050000	0.000000	1	1	0	0.000000	0.000000	0.000000	19.267068	0.000000	1.000000	0.054182
0.150000	0.050000	0.000000	2	1	0	0.000000	0.000000	0.000000	19.267068	0.000000	1.000000	0.052937
0.250000	0.050000	0.000000	3	1	0	0.000000	0.000000	0.000000	19.267068	0.000000	1.000000	0.052202
0.350000	0.050000	0.000000	4	1	0	0.000000	0.000000	0.000000	19.267068	0.000000	1.000000	0.052034
0.450000	0.050000	0.000000	5	1	0	0.000000	0.000000	0.000000	19.267068	0.000000	1.000000	0.052253
0.550000	0.050000	0.000000	6	1	0	0.000000	0.000000	0.000000	19.267068	0.000000	1.000000	0.052796
0.650000	0.050000	0.000000	7	1	0	0.000000	0.000000	0.000000	19.267068	0.000000	1.000000	0.053748
0.750000	0.050000	0.000000	8	1	0	0.000000	0.000000	0.000000	19.267068	0.000000	1.000000	0.055220
0.850000	0.050000	0.000000	9	1	0	0.000000	0.000000	0.000000	19.267068	0.000000	1.000000	0.057107
0.950000	0.050000	0.000000	10	1	0	0.000000	0.000000	0.000000	19.267068	0.000000	1.000000	0.057433
1.000000	0.050000	0.000000	11	1	0	0.000000	0.000000	0.000000	19.267068	0.000000	1.000000	0.000000
0.000000	0.150000	0.000000	0	2	0	0.000000	0.000000	0.000000	19.267068	0.000000	1.000000	0.000000
0.050000	0.150000	0.000000	1	2	0	0.000000	0.000000	0.000000	19.267068	0.000000	1.000000	0.054324
0.150000	0.150000	0.000000	2	2	0	0.000000	0.000000	0.000000	19.267068	0.000000	1.000000	0.053130
0.250000	0.150000	0.000000	3	2	0	0.000000	0.000000	0.000000	19.267068	0.000000	1.000000	0.052490
0.350000	0.150000	0.000000	4	2	0	0.000000	0.000000	0.000000	19.267068	0.000000	1.000000	0.052277
0.450000	0.150000	0.000000	5	2	0	0.000000	0.000000	0.000000	19.267068	0.000000	1.000000	0.052440
0.550000	0.150000	0.000000	6	2	0	0.000000	0.000000	0.000000	19.267068	0.000000	1.000000	0.052880
0.650000	0.150000	0.000000	7	2	0	0.000000	0.000000	0.000000	19.267068	0.000000	1.000000	0.053647
0.750000	0.150000	0.000000	8	2	0	0.000000	0.000000	0.000000	19.267068	0.000000	1.000000	0.054869
0.850000	0.150000	0.000000	9	2	0	0.000000	0.000000	0.000000	19.267068	0.000000	1.000000	0.056453
0.950000	0.150000	0.000000	10	2	0	0.000000	0.000000	0.000000	19.267068	0.000000	1.000000	0.056698
1.000000	0.150000	0.000000	11	2	0	0.000000	0.000000	0.000000	19.267068	0.000000	1.000000	0.000000
0.000000	0.250000	0.000000	0	3	0	0.000000	0.000000	0.000000	19.267068	0.000000	1.000000	0.000000
0.050000	0.250000	0.000000	1	3	0	0.000000	0.000000	0.000000	19.267068	0.000000	1.000000	0.053998
0.150000	0.250000	0.000000	2	3	0	0.000000	0.000000	0.000000	19.267068	0.000000	1.000000	0.053197
0.250000	0.250000	0.000000	3	3	0	0.000000	0.000000	0.000000	19.267068	0.000000	1.000000	0.052922
0.350000	0.250000	0.000000	4	3	0	0.000000	0.000000	0.000000	19.267068	0.000000	1.000000	0.052602
0.450000	0.250000	0.000000	5	3	0	0.000000	0.000000	0.000000	19.267068	0.000000	1.000000	0.052416
0.550000	0.250000	0.000000	6	3	0	0.000000	0.000000	0.000000	19.267068	0.000000	1.000000	0.052552
0.650000	0.250000	0.000000	7	3	0	0.000000	0.000000	0.000000	19.267068	0.000000	1.000000	0.052906
0.750000	0.250000	0.000000	8	3	0	0.000000	0.000000	0.000000	19.267068	0.000000	1.000000	0.053413
0.850000	0.250000	0.000000	9	3	0	0.000000	0.000000	0.000000	19.267068	0.000000	1.000000	0.053969
0.950000	0.250000	0.000000	10	3	0	0.000000	0.000000	0.000000	19.267068	0.000000	1.000000	0.053566
1.000000	0.250000	0.000000	11	3	0	0.000000	0.000000	0.000000	19.267068	0.000000	1.000000	0.000000
0.000000	0.350000	0.000000	0	4	0	0.000000	0.000000	0.000000	19.267068	0.000000	1.000000	0.000000
0.050000	0.350000	0.000000	1	4	0	0.000000	0.000000	0.000000	19.267068	0.000000	1.000000	0.053010
0.150000	0.350000	0.000000	2	4	0	0.000000	0.000000	0.000000	19.267068	0.000000	1.000000	0.053103
0.250000	0.350000	0.000000	3	4	0	0.000000	0.000000	0.000000	19.267068	0.000000	1.000000	0.053606
0.350000	0.350000	0.000000	4	4	0	0.000000	0.000000	0.000000	19.267068	0.000000	1.000000	0.053449
0.450000	0.350000	0.000000	5	4	0	0.000000	0.000000	0.000000	19.267068	0.000000	1.000000	0.052918
0.550000	0.350000	0.000000	6	4	0	0.000000	0.000000	0.000000	19.267068	0.000000	1.000000	0.052621
0.650000	0.350000	0.000000	7	4	0	0.000000	0.000000	0.000000	19.267068	0.000000	1.000000	0.052528
0.750000	0.350000	0.000000	8	4	0	0.000000	0.000000	0.000000	19.267068	0.000000	1.000000	0.052600
0.850000	0.350000	0.000000	9	4	0	0.000000	0.000000	0.000000	19.267068	0.000000	1.000000	0.052651
0.950000	0.350000	0.000000	10	4	0	0.000000	0.000000	0.000000	19.267068	0.000000	1.000000	0.052198
1.000000	0.350000	0.000000	11	4	0	0.000000	0.000000	0.000000	19.267068	0.000000	1.000000	0.000000
0.000000	0.450000	0.000000	0	5	0	0.000000	0.000000	0.000000	19.267068	0.000000	1.000000	0.000000
0.050000	0.450000	0.000000	1	5	0	0.000000	0.000000	0.000000	19.267068	0.000000	1.000000	0.052358
0.150000	0.450000	0.000000	2	5	0	0.000000	0.000000	0.000000	19.267068	0.000000	1.000000	0.052504
0.250000	0.450000	0.000000	3	5	0	0.000000	0.000000	0.000000	19.267068	0.000000	1.000000	0.052849
0.350000	0.450000	0.000000	4	5	0	0.000000	0.000000	0.000000	19.267068	0.000000	1.000000	0.053385
0.450000	0.450000	0.000000	5	5	0	0.000000	0.000000	0.000000	19.267068	0.000000	1.000000	0.053731
0.550000	0.450000	0.000000	6	5	0	0.000000	0.000000	0.000000	19.267068	0.000000	1.000000	0.053413
0.650000	0.450000	0.000000	7	5	0	0.000000	0.000000	0.000000	19.267068	0.000000	1.000000	0.052824
0.750000	0.450000	0.000000	8	5	0	0.000000	0.000000	0.000000	19.267068	0.000000	1.000000	0.052541
0.850000	0.450000	0.000000	9	5	0	0.000000	0.000000	0.000000	19.267068	0.000000	1.000000	0.052441
0.950000	0.450000	0.000000	10	5	0	0.000000	0.000000	0.000000	19.267068	0.000000	1.000000	0.052260
1.000000	0.450000	0.000000	11	5	0	0.000000	0.000000	0.000000	19.267068	0.000000	1.000000	0.000000
0.000000	0.550000	0.000000	0	6	0	0.000000	0.000000	0.000000	19.267068	0.000000	1.000000	0.000000
0.050000	0.550000	0.000000	1	6	0	0.000000	0.000000	0.000000	19.267068	0.000000	1.000000	0.052034
0.150000	0.550000	0.000000	2	6	0	0.000000	0.000000	0.000000	19.267068	0.000000	1.000000	0.052372
0.250000	0.550000	0.000000	3	6	0	0.000000	0.000000	0.000000	19.267068	0.000000	1.000000	0.052538
0.350000	0.550000	0.000000	4	6	0	0.000000	0.000000	0.000000	19.267068	0.000000	1.000000	0.052770
0.450000	0.550000	0.000000	5	6	0	0.000000	0.000000	0.000000	19.267068	0.000000	1.000000	0.053176
0.550000	0.550000	0.000000	6	6	0	0.000000	0.000000	0.000000	19.267068	0.000000	1.000000	0.053720
0.650000	0.550000	0.000000	7	6	0	0.000000	0.000000	0.000000	19.267068	0.000000	1.000000	0.053594
0.750000	0.550000	0.000000	8	6	0	0.000000	0.000000	0.000000	19.267068	0.000000	1.000000	0.053271
0.850000	0.550000	0.000000	9	6	0	0.000000	0.000000	0.000000	19.267068	0.000000	1.000000	0.053053
0.950000	0.550000	0.000000	10	6	0	0.000000	0.000000	0.000000	19.267068	0.000000	1.000000	0.053203
1.000000	0.550000	0.000000	11	6	0	0.000000	0.000000	0.000000	19.267068	0.000000	1.000000	0.000000
0.000000	0.650000	0.000000	0	7	0	0.000000	0.000000	0.000000	19.267068	0.000000	1.000000	0.000000
0.050000	0.650000	0.000000	1	7	0	0.000000	0.000000	0.000000	19.267068	0.000000	1.000000	0.052507
0.150000	0.650000	0.000000	2	7	0	0.000000	0.000000	0.000000	19.267068	0.000000	1.000000	0.052964
0.250000	0.650000	0.000000	3	7	0	0.000000	0.000000	0.000000	19.267068	0.000000	1.000000	0.052851
0.350000	0.650000	0.000000	4	7	0	0.000000	0.000000	0.000000	19.267068	0.000000	1.000000	0.052712
0.450000	0.650000	0.000000	5	7	0	0.000000	0.000000	0.000000	19.267068	0.000000	1.000000	0.052703
0.550000	0.650000	0.000000	6	7	0	0.000000	0.000000	0.000000	19.267068	0.000000	1.000000	0.052891
0.650000	0.650000	0.000000	7	7	0	0.000000	0.000000	0.000000	19.267068	0.000000	1.000000	0.053027
0.750000	0.650000	0.000000	8	7	0	0.000000	0.000000	0.000000	19.267068	0.000000	1.000000	0.053104
0.850000	0.650000	0.000000	9	7	0	0.000000	0.000000	0.000000	19.267068	0.000000	1.000000	0.053554
0.950000	0.650000	0.000000	10	7	0	0.000000	0.000000	0.000000	19.267068	0.000000	1.000000	0.053705
1.000000	0.650000	0.000000	11	7	0	0.000000	0.000000	0.000000	19.267068	0.000000	1.000000	0.000000
0.000000	0.750000	0.000000	0	8	0	0.000000	0.000000	0.000000	19.267068	0.000000	1.000000	0.000000
0.050000	0.750000	0.000000	1	8	0	0.000000	0.000000	0.000000	19.267068	0.000000	1.000000	0.054281
0.150000	0.750000	0.000000	2	8	0	0.000000	0.000000	0.000000	19.267068	0.000000	1.000000	0.054477
0.250000	0.750000	0.000000	3	8	0	0.000000	0.000000	0.000000	19.267068	0.000000	1.000000	0.053681
0.350000	0.750000	0.000000	4	8	0	0.000000	0.000000	0.000000	19.267068	0.000000	1.000000	0.053070
0.450000	0.750000	0.000000	5	8	0	0.000000	0.000000	0.000000	19.267068	0.000000	1.000000	0.052725
0.550000	0.750000	0.000000	6	8	0	0.000000	0.000000	0.000000	19.267068	0.000000	1.000000	0.052560
0.650000	0.750000	0.000000	7	8	0	0.000000	0.000000	0.000000	19.267068	0.000000	1.000000	0.052554
0.750000	0.750000	0.000000	8	8	0	0.000000	0.000000	0.000000	19.267068	0.000000	1.000000	0.052804
0.850000	0.750000	0.000000	9	8	0	0.000000	0.000000	0.000000	19.267068	0.000000	1.000000	0.053439
0.950000	0.750000	0.000000	10	8	0	0.000000	0.000000	0.000000	19.267068	0.000000	1.000000	0.054367
1.000000	0.750000	0.000000	11	8	0	0.000000	0.000000	0.000000	19.267068	0.000000	1.000000	0.000000
0.000000	0.850000	0.000000	0	9	0	0.000000	0.000000	0.000000	19.267068	0.000000	1.000000	0.000000
0.050000	0.850000	0.000000	1	9	0	0.000000	0.000000	0.000000	19.267068	0.000000	1.000000	0.056674
0.150000	0.850000	0.000000	2	9	0	0.000000	0.000000	0.000000	19.267068	0.000000	1.000000	0.056318
0.250000	0.850000	0.000000	3	9	0	0.000000	0.000000	0.000000	19.267068	0.000000	1.000000	0.054660
0.350000	0.850000	0.000000	4	9	0	0.000000	0.000000	0.000000	19.267068	0.000000	1.000000	0.053508
0.450000	0.850000	0.000000	5	9	0	0.000000	0.000000	0.000000	19.267068	0.000000	1.000000	0.052865
0.550000	0.850000	0.000000	6	9	0	0.000000	0.000000	0.000000	19.267068	0.000000	1.000000	0.052528
0.650000	0.850000	0.000000	7	9	0	0.000000	0.000000	0.000000	19.267068	0.000000	1.000000	0.052407
0.750000	0.850000	0.000000	8	9	0	0.000000	0.000000	0.000000	19.267068	0.000000	1.000000	0.052657
0.850000	0.850000	0.000000	9	9	0	0.000000	0.000000	0.000000	19.267068	0.000000	1.000000	0.053455
0.950000	0.850000	0.000000	10	9	0	0.000000	0.000000	0.000000	19.267068	0.000000	1.000000	0.054708
1.000000	0.850000	0.000000	11	9	0	0.000000	0.000000	0.000000	19.267068	0.000000	1.000000	0.000000
0.000000	0.950000	0.000000	0	10	0	0.000000	0.000000	0.000000	19.267068	0.000000	1.000000	0.000000
0.050000	0.950000	0.000000	1	10	0	0.000000	0.000000	0.000000	19.267068	0.000000	1.000000	0.056679
0.150000	0.950000	0.000000	2	10	0	0.000000	0.000000	0.000000	19.267068	0.000000	1.000000	0.056542
0.250000	0.950000	0.000000	3	10	0	0.000000	0.000000	0.000000	19.267068	0.000000	1.000000	0.054782
0.350000	0.950000	0.000000	4	10	0	0.000000	0.000000	0.000000	19.267068	0.000000	1.000000	0.053529
0.450000	0.950000	0.000000	5	10	0	0.000000	0.000000	0.000000	19.267068	0.000000	1.000000	0.052777
0.550000	0.950000	0.000000	6	10	0	0.000000	0.000000	0.000000	19.267068	0.000000	1.000000	0.052371
0.650000	0.950000	0.000000	7	10	0	0.000000	0.000000	0.000000	19.267068	0.000000	1.000000	0.052241
0.750000	0.950000	0.000000	8	10	0	0.000000	0.000000	0.000000	19.267068	0.000000	1.000000	0.052536
0.850000	0.950000	0.000000	9	10	0	0.000000	0.000000	0.000000	19.267068	0.000000	1.000000	0.053435
0.950000	0.950000	0.000000	10	10	0	0.000000	0.000000	0.000000	19.267068	0.000000	1.000000	0.054891
1.000000	0.950000	0.000000	11	10	0	0.000000	0.000000	0.000000	19.267068	0.000000	1.000000	0.000000
0.000000	1.000000	0.000000	0	11	0	0.000000	0.000000	0.000000	19.263536	0.000000	1.000000	0.000000
0.050000	1.000000	0.000000	1	11	0	0.000000	0.000000	0.000000	19.261770	0.000000	1.000000	0.000000
0.150000	1.000000	0.000000	2	11	0	0.000000	0.000000	0.000000	19.261770	0.000000	1.000000	0.000000
0.250000	1.000000	0.000000	3	11	0	0.000000	0.000000	0.000000	19.261770	0.000000	1.000000	0.000000
0.350000	1.000000	0.000000	4	11	0	0.000000	0.000000	0.000000	19.261770	0.000000	1.000000	0.000000
0.450000	1.000000	0.000000	5	11	0	0.000000	0.000000	0.000000	19.261770	0.000000	1.000000	0.000000
0.550000	1.000000	0.000000	6	11	0	0.000000	0.000000	0.000000	19.261770	0.000000	1.000000	0.000000
0.650000	1.000000	0.000000	7	11	0	0.000000	0.000000	0.000000	19.261770	0.000000	1.000000	0.000000
0.750000	1.000000	0.000000	8	11	0	0.000000	0.000000	0.000000	19.261770	0.000000	1.000000	0.000000
0.850000	1.000000	0.000000	9	11	0	0.000000	0.000000	0.000000	19.261770	0.000000	1.000000	0.000000
0.950000	1.000000	0.000000	10	11	0	0.000000	0.000000	0.000000	19.261770	0.000000	1.000000	0.000000
1.000000	1.000000	0.000000	11	11	0	0.000000	0.000000	0.000000	19.263536	0.000000	1.000000	0.000000
0.000000	0.000000	0.050000	0	0	1	0.000000	0.000000	0.000000	19.261779	0.000000	1.000000	0.000000
0.050000	0.000000	0.050000	1	0	1	0.000000	0.000000	0.000000	19.261779	0.000000	1.000000	0.054182
0.150000	0.000000	0.050000	2	0	1	0.000000	0.000000	0.000000	19.261779	0.000000	1.000000	0.052937
0.250000	0.000000	0.050000	3	0	1	0.000000	0.000000	0.000000	19.261779	0.000000	1.000000	0.052202
0.350000	0.000000	0.050000	4	0	1	0.000000	0.000000	0.000000	19.261779	0.000000	1.000000	0.052034
0.450000	0.000000	0.050000	5	0	1	0.000000	0.000000	0.000000	19.261779	0.000000	1.000000	0.052253
0.550000	0.000000	0.050000	6	0	1	0.000000	0.000000	0.000000	19.261779	0.000000	1.000000	0.052796
0.650000	0.000000	0.050000	7	0	1	0.000000	0.000000	0.000000	19.261779	0.000000	1.000000	0.053748
0.750000	0.000000	0.050000	8	0	1	0.000000	0.000000	0.000000	19.261779	0.000000	1.000000	0.055220
0.850000	0.000000	0.050000	9	0	1	0.000000	0.000000	0.000000	19.261779	0.000000	1.000000	0.057107
0.950000	0.000000	0.050000	10	0	1	0.000000	0.000000	0.000000	19.261779	0.000000	1.000000	0.057433
1.000000	0.000000	0.050000	11	0	1	0.000000	0.000000	0.000000	19.261779	0.000000	1.000000	0.000000
0.000000	0.050000	0.050000	0	1	1	0.000000	0.000000	0.000000	19.265309	0.000000	1.000000	0.054182
0.050000	0.050000	0.050000	1	1	1	-0.027866	0.003427	0.024436	16.948912	0.000000	-1.000000	0.054182
0.150000	0.050000	0.050000	2	1	1	-0.066480	0.004713	0.006029	16.844190	0.000000	-1.000000	0.052937
0.250000	0.050000	0.050000	3	1	1	-0.081560	0.006033	-0.001708	16.815292	0.000000	-1.000000	0.052202
0.350000	0.050000	0.050000	4	1	1	-0.087450	0.007440	-0.005889	16.789863	0.000000	-1.000000	0.052034
0.450000	0.050000	0.050000	5	1	1	-0.089125	0.008971	-0.008861	16.761596	0.000000	-1.000000	0.052253
0.550000	0.050000	0.050000	6	1	1	-0.087890	0.010547	-0.011907	16.732220	0.000000	-1.000000	0.052796
0.650000	0.050000	0.050000	7	1	1	-0.082850	0.011855	-0.015547	16.703920	0.000000	-1.000000	0.053748
0.750000	0.050000	0.050000	8	1	1	-0.071810	0.012599	-0.019955	16.680047	0.000000	-1.000000	0.055220
0.850000	0.050000	0.050000	9	1	1	-0.052302	0.012734	-0.024891	16.665176	0.000000	-1.000000	0.057107
0.950000	0.050000	0.050000	10	1	1	-0.020073	0.011669	-0.031742	16.666087	0.000000	-1.000000	0.057433
1.000000	0.050000	0.050000	11	1	1	0.000000	0.000000	0.000000	19.265658	0.000000	1.000000	0.057433
0.000000	0.150000	0.050000	0	2	1	0.000000	0.000000	0.000000	19.265309	0.000000	1.000000	0.054324
0.050000	0.150000	0.050000	1	2	1	-0.029618	0.013536	0.022932	16.882712	0.000000	-1.000000	0.054324
0.150000	0.150000	0.050000	2	2	1	-0.069276	0.011849	0.007610	16.781557	0.000000	-1.000000	0.053130
0.250000	0.150000	0.050000	3	2	1	-0.082613	0.014276	0.001078	16.758987	0.000000	-1.000000	0.052490
0.350000	0.150000	0.050000	4	2	1	-0.086423	0.019195	-0.003811	16.740365	0.000000	-1.000000	0.052277
0.450000	0.150000	0.050000	5	2	1	-0.086264	0.024063	-0.006805	16.719278	0.000000	-1.000000	0.052440
0.550000	0.150000	0.050000	6	2	1	-0.083687	0.028558	-0.009378	16.694631	0.000000	-1.000000	0.052880
0.650000	0.150000	0.050000	7	2	1	-0.077893	0.033047	-0.013234	16.666917	0.000000	-1.000000	0.053647
0.750000	0.150000	0.050000	8	2	1	-0.066689	0.037487	-0.019609	16.637748	0.000000	-1.000000	0.054869
0.850000	0.150000	0.050000	9	2	1	-0.047631	0.041397	-0.027673	16.613142	0.000000	-1.000000	0.056453
0.950000	0.150000	0.050000	10	2	1	-0.017944	0.042053	-0.036659	16.604451	0.000000	-1.000000	0.056698
1.000000	0.150000	0.050000	11	2	1	0.000000	0.000000	0.000000	19.265658	0.000000	1.000000	0.056698
0.000000	0.250000	0.050000	0	3	1	0.000000	0.000000	0.000000	19.265309	0.000000	1.000000	0.053998
0.050000	0.250000	0.050000	1	3	1	-0.030095	0.028859	0.021448	16.856000	0.000000	-1.000000	0.053998
0.150000	0.250000	0.050000	2	3	1	-0.067407	0.008646	0.012837	16.747956	0.000000	-1.000000	0.053197
0.250000	0.250000	0.050000	3	3	1	-0.075757	0.008352	0.009258	16.729681	0.000000	-1.000000	0.052922
0.350000	0.250000	0.050000	4	3	1	-0.077652	0.020939	0.003326	16.715954	0.000000	-1.000000	0.052602
0.450000	0.250000	0.050000	5	3	1	-0.077279	0.031973	-0.002936	16.700764	0.000000	-1.000000	0.052416
0.550000	0.250000	0.050000	6	3	1	-0.073264	0.040016	-0.006880	16.682641	0.000000	-1.000000	0.052552
0.650000	0.250000	0.050000	7	3	1	-0.065665	0.047423	-0.009767	16.659509	0.000000	-1.000000	0.052906
0.750000	0.250000	0.050000	8	3	1	-0.053607	0.055408	-0.012972	16.633743	0.000000	-1.000000	0.053413
0.850000	0.250000	0.050000	9	3	1	-0.035876	0.063043	-0.016114	16.614365	0.000000	-1.000000	0.053969
0.950000	0.250000	0.050000	10	3	1	-0.012741	0.065444	-0.017418	16.619635	0.000000	-1.000000	0.053566
1.000000	0.250000	0.050000	11	3	1	0.000000	0.000000	0.000000	19.265658	0.000000	1.000000	0.053566
0.000000	0.350000	0.050000	0	4	1	0.000000	0.000000	0.000000	19.265309	0.000000	1.000000	0.053010
0.050000	0.350000	0.050000	1	4	1	0.001686	0.008071	0.027742	16.948381	0.000000	-1.000000	0.053010
0.150000	0.350000	0.050000	2	4	1	0.000789	-0.016201	0.021801	16.762084	0.000000	-1.000000	0.053103
0.250000	0.350000	0.050000	3	4	1	-0.015699	-0.014179	0.028294	16.734536	0.000000	-1.000000	0.053606
0.350000	0.350000	0.050000	4	4	1	-0.043438	0.009016	0.023179	16.717343	0.000000	-1.000000	0.053449
0.450000	0.350000	0.050000	5	4	1	-0.059421	0.026821	0.009081	16.693253	0.000000	-1.000000	0.052918
0.550000	0.350000	0.050000	6	4	1	-0.059409	0.041392	0.000449	16.676490	0.000000	-1.000000	0.052621
0.650000	0.350000	0.050000	7	4	1	-0.052445	0.053289	-0.005639	16.664234	0.000000	-1.000000	0.052528
0.750000	0.350000	0.050000	8	4	1	-0.040833	0.062032	-0.007805	16.648777	0.000000	-1.000000	0.052600
0.850000	0.350000	0.050000	9	4	1	-0.025514	0.068301	-0.008054	16.640661	0.000000	-1.000000	0.052651
0.950000	0.350000	0.050000	10	4	1	-0.008501	0.068039	-0.006420	16.660625	0.000000	-1.000000	0.052198
1.000000	0.350000	0.050000	11	4	1	0.000000	0.000000	0.000000	19.265658	0.000000	1.000000	0.052198
0.000000	0.450000	0.050000	0	5	1	0.000000	0.000000	0.000000	19.265309	0.000000	1.000000	0.052358
0.050000	0.450000	0.050000	1	5	1	0.004224	-0.036420	0.010834	16.755264	0.000000	-1.000000	0.052358
0.150000	0.450000	0.050000	2	5	1	0.011586	-0.045449	0.006885	16.705864	0.000000	-1.000000	0.052504
0.250000	0.450000	0.050000	3	5	1	0.016023	-0.038974	0.009096	16.696541	0.000000	-1.000000	0.052849
0.350000	0.450000	0.050000	4	5	1	0.015808	-0.018568	0.019738	16.700590	0.000000	-1.000000	0.053385
0.450000	0.450000	0.050000	5	5	1	-0.010502	0.001583	0.043087	16.790822	0.000000	-1.000000	0.053731
0.550000	0.450000	0.050000	6	5	1	-0.036170	0.020596	0.019042	16.689125	0.000000	-1.000000	0.053413
0.650000	0.450000	0.050000	7	5	1	-0.036440	0.046114	0.007396	16.670802	0.000000	-1.000000	0.052824
0.750000	0.450000	0.050000	8	5	1	-0.031365	0.055973	0.002572	16.660114	0.000000	-1.000000	0.052541
0.850000	0.450000	0.050000	9	5	1	-0.021074	0.060392	0.001628	16.661645	0.000000	-1.000000	0.052441
0.950000	0.450000	0.050000	10	5	1	-0.007628	0.053831	0.004496	16.694861	0.000000	-1.000000	0.052260
1.000000	0.450000	0.050000	11	5	1	0.000000	0.000000	0.000000	19.265658	0.000000	1.000000	0.052260
0.000000	0.550000	0.050000	0	6	1	0.000000	0.000000	0.000000	19.265309	0.000000	1.000000	0.052034
0.050000	0.550000	0.050000	1	6	1	0.005352	-0.055644	-0.001188	16.711416	0.000000	-1.000000	0.052034
0.150000	0.550000	0.050000	2	6	1	0.017146	-0.057335	-0.004582	16.684660	0.000000	-1.000000	0.052372
0.250000	0.550000	0.050000	3	6	1	0.029065	-0.051037	-0.003815	16.683313	0.000000	-1.000000	0.052538
0.350000	0.550000	0.050000	4	6	1	0.036985	-0.040748	0.001500	16.686198	0.000000	-1.000000	0.052770
0.450000	0.550000	0.050000	5	6	1	0.038030	-0.025133	0.009810	16.693764	0.000000	-1.000000	0.053176
0.550000	0.550000	0.050000	6	6	1	0.019407	-0.006675	0.026310	16.709620	0.000000	-1.000000	0.053720
0.650000	0.550000	0.050000	7	6	1	-0.008170	0.019670	0.028786	16.718326	0.000000	-1.000000	0.053594
0.750000	0.550000	0.050000	8	6	1	-0.017773	0.025258	0.022911	16.702540	0.000000	-1.000000	0.053271
0.850000	0.550000	0.050000	9	6	1	-0.017514	0.036216	0.017215	16.715919	0.000000	-1.000000	0.053053
0.950000	0.550000	0.050000	10	6	1	-0.009002	0.005500	0.027201	16.825201	0.000000	-1.000000	0.053203
1.000000	0.550000	0.050000	11	6	1	0.000000	0.000000	0.000000	19.265658	0.000000	1.000000	0.053203
0.000000	0.650000	0.050000	0	7	1	0.000000	0.000000	0.000000	19.265309	0.000000	1.000000	0.052507
0.050000	0.650000	0.050000	1	7	1	0.008415	-0.059370	-0.008852	16.679128	0.000000	-1.000000	0.052507
0.150000	0.650000	0.050000	2	7	1	0.025540	-0.057848	-0.010057	16.660651	0.000000	-1.000000	0.052964
0.250000	0.650000	0.050000	3	7	1	0.040731	-0.050605	-0.008579	16.669059	0.000000	-1.000000	0.052851
0.350000	0.650000	0.050000	4	7	1	0.051281	-0.042538	-0.006230	16.683526	0.000000	-1.000000	0.052712
0.450000	0.650000	0.050000	5	7	1	0.057750	-0.033231	-0.002727	16.695362	0.000000	-1.000000	0.052703
0.550000	0.650000	0.050000	6	7	1	0.061502	-0.020410	0.003285	16.703439	0.000000	-1.000000	0.052891
0.650000	0.650000	0.050000	7	7	1	0.063597	-0.008054	0.008534	16.708726	0.000000	-1.000000	0.053027
0.750000	0.650000	0.050000	8	7	1	0.058740	-0.005465	0.012654	16.713960	0.000000	-1.000000	0.053104
0.850000	0.650000	0.050000	9	7	1	0.048322	0.004726	0.019574	16.726268	0.000000	-1.000000	0.053554
0.950000	0.650000	0.050000	10	7	1	0.021752	-0.030609	0.021654	16.838741	0.000000	-1.000000	0.053705
1.000000	0.650000	0.050000	11	7	1	0.000000	0.000000	0.000000	19.265658	0.000000	1.000000	0.053705
0.000000	0.750000	0.050000	0	8	1	0.000000	0.000000	0.000000	19.265309	0.000000	1.000000	0.054281
0.050000	0.750000	0.050000	1	8	1	0.013535	-0.050358	-0.022105	16.636842	0.000000	-1.000000	0.054281
0.150000	0.750000	0.050000	2	8	1	0.037475	-0.047883	-0.019020	16.634817	0.000000	-1.000000	0.054477
0.250000	0.750000	0.050000	3	8	1	0.054509	-0.040933	-0.014205	16.655285	0.000000	-1.000000	0.053681
0.350000	0.750000	0.050000	4	8	1	0.064796	-0.034088	-0.009955	16.680469	0.000000	-1.000000	0.053070
0.450000	0.750000	0.050000	5	8	1	0.070598	-0.027955	-0.007105	16.702019	0.000000	-1.000000	0.052725
0.550000	0.750000	0.050000	6	8	1	0.074130	-0.021898	-0.004552	16.718007	0.000000	-1.000000	0.052560
0.650000	0.750000	0.050000	7	8	1	0.075588	-0.016084	-0.001330	16.728767	0.000000	-1.000000	0.052554
0.750000	0.750000	0.050000	8	8	1	0.072175	-0.012104	0.003056	16.737016	0.000000	-1.000000	0.052804
0.850000	0.750000	0.050000	9	8	1	0.061035	-0.010272	0.007893	16.745194	0.000000	-1.000000	0.053439
0.950000	0.750000	0.050000	10	8	1	0.026687	-0.024494	0.020666	16.835209	0.000000	-1.000000	0.054367
1.000000	0.750000	0.050000	11	8	1	0.000000	0.000000	0.000000	19.265658	0.000000	1.000000	0.054367
0.000000	0.850000	0.050000	0	9	1	0.000000	0.000000	0.000000	19.265309	0.000000	1.000000	0.056674
0.050000	0.850000	0.050000	1	9	1	0.018682	-0.021145	-0.039319	16.623938	0.000000	-1.000000	0.056674
0.150000	0.850000	0.050000	2	9	1	0.048919	-0.022171	-0.028647	16.639594	0.000000	-1.000000	0.056318
0.250000	0.850000	0.050000	3	9	1	0.067140	-0.020440	-0.019582	16.668461	0.000000	-1.000000	0.054660
0.350000	0.850000	0.050000	4	9	1	0.077079	-0.018226	-0.012844	16.698342	0.000000	-1.000000	0.053508
0.450000	0.850000	0.050000	5	9	1	0.081970	-0.015662	-0.008960	16.723363	0.000000	-1.000000	0.052865
0.550000	0.850000	0.050000	6	9	1	0.084367	-0.012870	-0.006659	16.742790	0.000000	-1.000000	0.052528
0.650000	0.850000	0.050000	7	9	1	0.084644	-0.010149	-0.004183	16.757458	0.000000	-1.000000	0.052407
0.750000	0.850000	0.050000	8	9	1	0.080037	-0.007964	0.000378	16.768800	0.000000	-1.000000	0.052657
0.850000	0.850000	0.050000	9	9	1	0.065305	-0.006973	0.007087	16.780813	0.000000	-1.000000	0.053455
0.950000	0.850000	0.050000	10	9	1	0.027339	-0.014130	0.022990	16.875531	0.000000	-1.000000	0.054708
1.000000	0.850000	0.050000	11	9	1	0.000000	0.000000	0.000000	19.265658	0.000000	1.000000	0.054708
0.000000	0.950000	0.050000	0	10	1	0.000000	0.000000	0.000000	19.265309	0.000000	1.000000	0.056679
0.050000	0.950000	0.050000	1	10	1	0.020993	-0.000252	-0.021242	16.771829	0.000000	-1.000000	0.056679
0.150000	0.950000	0.050000	2	10	1	0.054280	-0.002538	-0.014829	16.767514	0.000000	-1.000000	0.056542
0.250000	0.950000	0.050000	3	10	1	0.073801	-0.003762	-0.010989	16.773031	0.000000	-1.000000	0.054782
0.350000	0.950000	0.050000	4	10	1	0.084889	-0.004328	-0.008192	16.783601	0.000000	-1.000000	0.053529
0.450000	0.950000	0.050000	5	10	1	0.090696	-0.004163	-0.006114	16.796957	0.000000	-1.000000	0.052777
0.550000	0.950000	0.050000	6	10	1	0.093438	-0.003499	-0.004301	16.811691	0.000000	-1.000000	0.052371
0.650000	0.950000	0.050000	7	10	1	0.093446	-0.002735	-0.001953	16.826800	0.000000	-1.000000	0.052241
0.750000	0.950000	0.050000	8	10	1	0.088033	-0.002122	0.002498	16.842465	0.000000	-1.000000	0.052536
0.850000	0.950000	0.050000	9	10	1	0.071897	-0.001718	0.009789	16.862359	0.000000	-1.000000	0.053435
0.950000	0.950000	0.050000	10	10	1	0.030193	-0.004892	0.025299	16.950061	0.000000	-1.000000	0.054891
1.000000	0.950000	0.050000	11	10	1	0.000000	0.000000	0.000000	19.265658	0.000000	1.000000	0.054891
0.000000	1.000000	0.050000	0	11	1	0.000000	0.000000	0.000000	19.261770	0.000000	1.000000	0.000000
0.050000	1.000000	0.050000	1	11	1	0.000000	0.000000	0.000000	19.261770	0.000000	1.000000	0.056679
0.150000	1.000000	0.050000	2	11	1	0.000000	0.000000	0.000000	19.261770	0.000000	1.000000	0.056542
0.250000	1.000000	0.050000	3	11	1	0.000000	0.000000	0.000000	19.261770	0.000000	1.000000	0.054782
0.350000	1.000000	0.050000	4	11	1	0.000000	0.000000	0.000000	19.261770	0.000000	1.000000	0.053529
0.450000	1.000000	0.050000	5	11	1	0.000000	0.000000	0.000000	19.261770	0.000000	1.000000	0.052777
0.550000	1.000000	0.050000	6	11	1	0.000000	0.000000	0.000000	19.261770	0.000000	1.000000	0.052371
0.650000	1.000000	0.050000	7	11	1	0.000000	0.000000	0.000000	19.261770	0.000000	1.000000	0.052241
0.750000	1.000000	0.050000	8	11	1	0.000000	0.000000	0.000000	19.261770	0.000000	1.000000	0.052536
0.850000	1.000000	0.050000	9	11	1	0.000000	0.000000	0.000000	19.261770	0.000000	1.000000	0.053435
0.950000	1.000000	0.050000	10	11	1	0.000000	0.000000	0.000000	19.261770	0.000000	1.000000	0.054891
1.000000	1.000000	0.050000	11	11	1	0.000000	0.000000	0.000000	19.261770	0.000000	1.000000	0.000000
0.000000	0.000000	0.150000	0	0	2	0.000000	0.000000	0.000000	19.261779	0.000000	1.000000	0.000000
0.050000	0.000000	0.150000	1	0	2	0.000000	0.000000	0.000000	19.261779	0.000000	1.000000	0.042658
0.150000	0.000000	0.150000	2	0	2	0.000000	0.000000	0.000000	19.261779	0.000000	1.000000	0.041091
0.250000	0.000000	0.150000	3	0	2	0.000000	0.000000	0.000000	19.261779	0.000000	1.000000	0.040497
0.350000	0.000000	0.150000	4	0	2	0.000000	0.000000	0.000000	19.261779	0.000000	1.000000	0.040384
0.450000	0.000000	0.150000	5	0	2	0.000000	0.000000	0.000000	19.261779	0.000000	1.000000	0.040477
0.550000	0.000000	0.150000	6	0	2	0.000000	0.000000	0.000000	19.261779	0.000000	1.000000	0.040736
0.650000	0.000000	0.150000	7	0	2	0.000000	0.000000	0.000000	19.261779	0.000000	1.000000	0.041232
0.750000	0.000000	0.150000	8	0	2	0.000000	0.000000	0.000000	19.261779	0.000000	1.000000	0.042129
0.850000	0.000000	0.150000	9	0	2	0.000000	0.000000	0.000000	19.261779	0.000000	1.000000	0.043359
0.950000	0.000000	0.150000	10	0	2	0.000000	0.000000	0.000000	19.261779	0.000000	1.000000	0.043738
1.000000	0.000000	0.150000	11	0	2	0.000000	0.000000	0.000000	19.261779	0.000000	1.000000	0.000000
0.000000	0.050000	0.150000	0	1	2	0.000000	0.000000	0.000000	19.265309	0.000000	1.000000	0.042658
0.050000	0.050000	0.150000	1	1	2	-0.013123	0.003795	0.058197	16.960557	0.000000	-1.000000	0.042658
0.150000	0.050000	0.150000	2	1	2	-0.030480	0.000199	0.016088	16.892133	0.000000	-1.000000	0.041091