TITLE = "dt=10.000000s, t=7260.000000s, nu=0.000015, Lx=1.000000, Ly=1.000000, Lz=1.000000, Nx=22, Ny=22, Nz=22 "
VARIABLES =X, Y, Z, I, J, K, U, V, W, T, Xi, FlagP, P 
ZONE F=POINT, I=22, J=22, K=22
0.000000	0.000000	0.000000	0	0	0	0.000000	0.000000	0.000000	0.666667	0.000000	1.000000	0.000000
0.025000	0.000000	0.000000	1	0	0	0.000000	0.000000	0.000000	0.000000	0.000000	1.000000	0.000000
0.075000	0.000000	0.000000	2	0	0	0.000000	0.000000	0.000000	0.000000	0.000000	1.000000	0.000000
0.125000	0.000000	0.000000	3	0	0	0.000000	0.000000	0.000000	0.000000	0.000000	1.000000	0.000000
0.175000	0.000000	0.000000	4	0	0	0.000000	0.000000	0.000000	0.000000	0.000000	1.000000	0.000000
0.225000	0.000000	0.000000	5	0	0	0.000000	0.000000	0.000000	0.000000	0.000000	1.000000	0.000000
0.275000	0.000000	0.000000	6	0	0	0.000000	0.000000	0.000000	0.000000	0.000000	1.000000	0.000000
0.325000	0.000000	0.000000	7	0	0	0.000000	0.000000	0.000000	0.000000	0.000000	1.000000	0.000000
0.375000	0.000000	0.000000	8	0	0	0.000000	0.000000	0.000000	0.000000	0.000000	1.000000	0.000000
0.425000	0.000000	0.000000	9	0	0	0.000000	0.000000	0.000000	0.000000	0.000000	1.000000	0.000000
0.475000	0.000000	0.000000	10	0	0	0.000000	0.000000	0.000000	0.000000	0.000000	1.000000	0.000000
0.525000	0.000000	0.000000	11	0	0	0.000000	0.000000	0.000000	0.000000	0.000000	1.000000	0.000000
0.575000	0.000000	0.000000	12	0	0	0.000000	0.000000	0.000000	0.000000	0.000000	1.000000	0.000000
0.625000	0.000000	0.000000	13	0	0	0.000000	0.000000	0.000000	0.000000	0.000000	1.000000	0.000000
0.675000	0.000000	0.000000	14	0	0	0.000000	0.000000	0.000000	0.000000	0.000000	1.000000	0.000000
0.725000	0.000000	0.000000	15	0	0	0.000000	0.000000	0.000000	0.000000	0.000000	1.000000	0.000000
0.775000	0.000000	0.000000	16	0	0	0.000000	0.000000	0.000000	0.000000	0.000000	1.000000	0.000000
0.825000	0.000000	0.000000	17	0	0	0.000000	0.000000	0.000000	0.000000	0.000000	1.000000	0.000000
0.875000	0.000000	0.000000	18	0	0	0.000000	0.000000	0.000000	0.000000	0.000000	1.000000	0.000000
0.925000	0.000000	0.000000	19	0	0	0.000000	0.000000	0.000000	0.000000	0.000000	1.000000	0.000000
0.975000	0.000000	0.000000	20	0	0	0.000000	0.000000	0.000000	0.000000	0.000000	1.000000	0.000000
1.000000	0.000000	0.000000	21	0	0	0.000000	0.000000	0.000000	0.000000	0.000000	1.000000	0.000000
0.000000	0.025000	0.000000	0	1	0	0.000000	0.000000	0.000000	1.000000	0.000000	1.000000	0.000000
0.025000	0.025000	0.000000	1	1	0	0.000000	0.000000	0.000000	0.829678	0.000000	1.000000	-0.000006
0.075000	0.025000	0.000000	2	1	0	0.000000	0.000000	0.000000	0.554644	0.000000	1.000000	-0.000006
0.125000	0.025000	0.000000	3	1	0	0.000000	0.000000	0.000000	0.386060	0.000000	1.000000	-0.000006
0.175000	0.025000	0.000000	4	1	0	0.000000	0.000000	0.000000	0.293373	0.000000	1.000000	-0.000006
0.225000	0.025000	0.000000	5	1	0	0.000000	0.000000	0.000000	0.242705	0.000000	1.000000	-0.000006
0.275000	0.025000	0.000000	6	1	0	0.000000	0.000000	0.000000	0.213529	0.000000	1.000000	-0.000005
0.325000	0.025000	0.000000	7	1	0	0.000000	0.000000	0.000000	0.195034	0.000000	1.000000	-0.000005
0.375000	0.025000	0.000000	8	1	0	0.000000	0.000000	0.000000	0.181711	0.000000	1.000000	-0.000005
0.425000	0.025000	0.000000	9	1	0	0.000000	0.000000	0.000000	0.170741	0.000000	1.000000	-0.000005
0.475000	0.025000	0.000000	10	1	0	0.000000	0.000000	0.000000	0.160663	0.000000	1.000000	-0.000005
0.525000	0.025000	0.000000	11	1	0	0.000000	0.000000	0.000000	0.150693	0.000000	1.000000	-0.000005
0.575000	0.025000	0.000000	12	1	0	0.000000	0.000000	0.000000	0.140364	0.000000	1.000000	-0.000005
0.625000	0.025000	0.000000	13	1	0	0.000000	0.000000	0.000000	0.129382	0.000000	1.000000	-0.000005
0.675000	0.025000	0.000000	14	1	0	0.000000	0.000000	0.000000	0.117531	0.000000	1.000000	-0.000005
0.725000	0.025000	0.000000	15	1	0	0.000000	0.000000	0.000000	0.104606	0.000000	1.000000	-0.000004
0.775000	0.025000	0.000000	16	1	0	0.000000	0.000000	0.000000	0.090369	0.000000	1.000000	-0.000004
0.825000	0.025000	0.000000	17	1	0	0.000000	0.000000	0.000000	0.074494	0.000000	1.000000	-0.000004
0.875000	0.025000	0.000000	18	1	0	0.000000	0.000000	0.000000	0.056510	0.000000	1.000000	-0.000004
0.925000	0.025000	0.000000	19	1	0	0.000000	0.000000	0.000000	0.036029	0.000000	1.000000	-0.000004
0.975000	0.025000	0.000000	20	1	0	0.000000	0.000000	0.000000	0.013007	0.000000	1.000000	-0.000004
1.000000	0.025000	0.000000	21	1	0	0.000000	0.000000	0.000000	0.000000	0.000000	1.000000	0.000000
0.000000	0.075000	0.000000	0	2	0	0.000000	0.000000	0.000000	1.000000	0.000000	1.000000	0.000000
0.025000	0.075000	0.000000	1	2	0	0.000000	0.000000	0.000000	0.815700	0.000000	1.000000	-0.000006
0.075000	0.075000	0.000000	2	2	0	0.000000	0.000000	0.000000	0.528560	0.000000	1.000000	-0.000006
0.125000	0.075000	0.000000	3	2	0	0.000000	0.000000	0.000000	0.363134	0.000000	1.000000	-0.000006
0.175000	0.075000	0.000000	4	2	0	0.000000	0.000000	0.000000	0.277097	0.000000	1.000000	-0.000006
0.225000	0.075000	0.000000	5	2	0	0.000000	0.000000	0.000000	0.231690	0.000000	1.000000	-0.000006
0.275000	0.075000	0.000000	6	2	0	0.000000	0.000000	0.000000	0.205840	0.000000	1.000000	-0.000005
0.325000	0.075000	0.000000	7	2	0	0.000000	0.000000	0.000000	0.189279	0.000000	1.000000	-0.000005
0.375000	0.075000	0.000000	8	2	0	0.000000	0.000000	0.000000	0.177065	0.000000	1.000000	-0.000005
0.425000	0.075000	0.000000	9	2	0	0.000000	0.000000	0.000000	0.166741	0.000000	1.000000	-0.000005
0.475000	0.075000	0.000000	10	2	0	0.000000	0.000000	0.000000	0.157062	0.000000	1.000000	-0.000005
0.525000	0.075000	0.000000	11	2	0	0.000000	0.000000	0.000000	0.147375	0.000000	1.000000	-0.000005
0.575000	0.075000	0.000000	12	2	0	0.000000	0.000000	0.000000	0.137311	0.000000	1.000000	-0.000005
0.625000	0.075000	0.000000	13	2	0	0.000000	0.000000	0.000000	0.126648	0.000000	1.000000	-0.000005
0.675000	0.075000	0.000000	14	2	0	0.000000	0.000000	0.000000	0.115215	0.000000	1.000000	-0.000005
0.725000	0.075000	0.000000	15	2	0	0.000000	0.000000	0.000000	0.102833	0.000000	1.000000	-0.000004
0.775000	0.075000	0.000000	16	2	0	0.000000	0.000000	0.000000	0.089238	0.000000	1.000000	-0.000004
0.825000	0.075000	0.000000	17	2	0	0.000000	0.000000	0.000000	0.073933	0.000000	1.000000	-0.000004
0.875000	0.075000	0.000000	18	2	0	0.000000	0.000000	0.000000	0.056376	0.000000	1.000000	-0.000004
0.925000	0.075000	0.000000	19	2	0	0.000000	0.000000	0.000000	0.036143	0.000000	1.000000	-0.000004
0.975000	0.075000	0.000000	20	2	0	0.000000	0.000000	0.000000	0.013225	0.000000	1.000000	-0.000004
1.000000	0.075000	0.000000	21	2	0	0.000000	0.000000	0.000000	0.000000	0.000000	1.000000	0.000000
0.000000	0.125000	0.000000	0	3	0	0.000000	0.000000	0.000000	1.000000	0.000000	1.000000	0.000000
0.025000	0.125000	0.000000	1	3	0	0.000000	0.000000	0.000000	0.804777	0.000000	1.000000	-0.000006
0.075000	0.125000	0.000000	2	3	0	0.000000	0.000000	0.000000	0.507442	0.000000	1.000000	-0.000006
0.125000	0.125000	0.000000	3	3	0	0.000000	0.000000	0.000000	0.343294	0.000000	1.000000	-0.000006
0.175000	0.125000	0.000000	4	3	0	0.000000	0.000000	0.000000	0.261836	0.000000	1.000000	-0.000006
0.225000	0.125000	0.000000	5	3	0	0.000000	0.000000	0.000000	0.220563	0.000000	1.000000	-0.000006
0.275000	0.125000	0.000000	6	3	0	0.000000	0.000000	0.000000	0.197609	0.000000	1.000000	-0.000005
0.325000	0.125000	0.000000	7	3	0	0.000000	0.000000	0.000000	0.182917	0.000000	1.000000	-0.000005
0.375000	0.125000	0.000000	8	3	0	0.000000	0.000000	0.000000	0.171917	0.000000	1.000000	-0.000005
0.425000	0.125000	0.000000	9	3	0	0.000000	0.000000	0.000000	0.162442	0.000000	1.000000	-0.000005
0.475000	0.125000	0.000000	10	3	0	0.000000	0.000000	0.000000	0.153439	0.000000	1.000000	-0.000005
0.525000	0.125000	0.000000	11	3	0	0.000000	0.000000	0.000000	0.144376	0.000000	1.000000	-0.000005
0.575000	0.125000	0.000000	12	3	0	0.000000	0.000000	0.000000	0.134961	0.000000	1.000000	-0.000005
0.625000	0.125000	0.000000	13	3	0	0.000000	0.000000	0.000000	0.125008	0.000000	1.000000	-0.000005
0.675000	0.125000	0.000000	14	3	0	0.000000	0.000000	0.000000	0.114350	0.000000	1.000000	-0.000005
0.725000	0.125000	0.000000	15	3	0	0.000000	0.000000	0.000000	0.102780	0.000000	1.000000	-0.000004
0.775000	0.125000	0.000000	16	3	0	0.000000	0.000000	0.000000	0.089861	0.000000	1.000000	-0.000004
0.825000	0.125000	0.000000	17	3	0	0.000000	0.000000	0.000000	0.074985	0.000000	1.000000	-0.000004
0.875000	0.125000	0.000000	18	3	0	0.000000	0.000000	0.000000	0.057547	0.000000	1.000000	-0.000004
0.925000	0.125000	0.000000	19	3	0	0.000000	0.000000	0.000000	0.037095	0.000000	1.000000	-0.000004
0.975000	0.125000	0.000000	20	3	0	0.000000	0.000000	0.000000	0.013650	0.000000	1.000000	-0.000004
1.000000	0.125000	0.000000	21	3	0	0.000000	0.000000	0.000000	0.000000	0.000000	1.000000	0.000000
0.000000	0.175000	0.000000	0	4	0	0.000000	0.000000	0.000000	1.000000	0.000000	1.000000	0.000000
0.025000	0.175000	0.000000	1	4	0	0.000000	0.000000	0.000000	0.798362	0.000000	1.000000	-0.000006
0.075000	0.175000	0.000000	2	4	0	0.000000	0.000000	0.000000	0.494683	0.000000	1.000000	-0.000006
0.125000	0.175000	0.000000	3	4	0	0.000000	0.000000	0.000000	0.330634	0.000000	1.000000	-0.000006
0.175000	0.175000	0.000000	4	4	0	0.000000	0.000000	0.000000	0.251444	0.000000	1.000000	-0.000006
0.225000	0.175000	0.000000	5	4	0	0.000000	0.000000	0.000000	0.212514	0.000000	1.000000	-0.000006
0.275000	0.175000	0.000000	6	4	0	0.000000	0.000000	0.000000	0.191384	0.000000	1.000000	-0.000005
0.325000	0.175000	0.000000	7	4	0	0.000000	0.000000	0.000000	0.178011	0.000000	1.000000	-0.000005
0.375000	0.175000	0.000000	8	4	0	0.000000	0.000000	0.000000	0.167987	0.000000	1.000000	-0.000005
0.425000	0.175000	0.000000	9	4	0	0.000000	0.000000	0.000000	0.159305	0.000000	1.000000	-0.000005
0.475000	0.175000	0.000000	10	4	0	0.000000	0.000000	0.000000	0.151011	0.000000	1.000000	-0.000005
0.525000	0.175000	0.000000	11	4	0	0.000000	0.000000	0.000000	0.142634	0.000000	1.000000	-0.000005
0.575000	0.175000	0.000000	12	4	0	0.000000	0.000000	0.000000	0.133908	0.000000	1.000000	-0.000005
0.625000	0.175000	0.000000	13	4	0	0.000000	0.000000	0.000000	0.124640	0.000000	1.000000	-0.000005
0.675000	0.175000	0.000000	14	4	0	0.000000	0.000000	0.000000	0.114636	0.000000	1.000000	-0.000005
0.725000	0.175000	0.000000	15	4	0	0.000000	0.000000	0.000000	0.103641	0.000000	1.000000	-0.000004
0.775000	0.175000	0.000000	16	4	0	0.000000	0.000000	0.000000	0.091119	0.000000	1.000000	-0.000004
0.825000	0.175000	0.000000	17	4	0	0.000000	0.000000	0.000000	0.076420	0.000000	1.000000	-0.000004
0.875000	0.175000	0.000000	18	4	0	0.000000	0.000000	0.000000	0.058908	0.000000	1.000000	-0.000004
0.925000	0.175000	0.000000	19	4	0	0.000000	0.000000	0.000000	0.038111	0.000000	1.000000	-0.000004
0.975000	0.175000	0.000000	20	4	0	0.000000	0.000000	0.000000	0.014053	0.000000	1.000000	-0.000004
1.000000	0.175000	0.000000	21	4	0	0.000000	0.000000	0.000000	0.000000	0.000000	1.000000	0.000000
0.000000	0.225000	0.000000	0	5	0	0.000000	0.000000	0.000000	1.000000	0.000000	1.000000	0.000000
0.025000	0.225000	0.000000	1	5	0	0.000000	0.000000	0.000000	0.795061	0.000000	1.000000	-0.000006
0.075000	0.225000	0.000000	2	5	0	0.000000	0.000000	0.000000	0.487925	0.000000	1.000000	-0.000006
0.125000	0.225000	0.000000	3	5	0	0.000000	0.000000	0.000000	0.323575	0.000000	1.000000	-0.000006
0.175000	0.225000	0.000000	4	5	0	0.000000	0.000000	0.000000	0.245310	0.000000	1.000000	-0.000006
0.225000	0.225000	0.000000	5	5	0	0.000000	0.000000	0.000000	0.207509	0.000000	1.000000	-0.000005
0.275000	0.225000	0.000000	6	5	0	0.000000	0.000000	0.000000	0.187366	0.000000	1.000000	-0.000005
0.325000	0.225000	0.000000	7	5	0	0.000000	0.000000	0.000000	0.174796	0.000000	1.000000	-0.000005
0.375000	0.225000	0.000000	8	5	0	0.000000	0.000000	0.000000	0.165439	0.000000	1.000000	-0.000005
0.425000	0.225000	0.000000	9	5	0	0.000000	0.000000	0.000000	0.157347	0.000000	1.000000	-0.000005
0.475000	0.225000	0.000000	10	5	0	0.000000	0.000000	0.000000	0.149598	0.000000	1.000000	-0.000005
0.525000	0.225000	0.000000	11	5	0	0.000000	0.000000	0.000000	0.141735	0.000000	1.000000	-0.000005
0.575000	0.225000	0.000000	12	5	0	0.000000	0.000000	0.000000	0.133485	0.000000	1.000000	-0.000005
0.625000	0.225000	0.000000	13	5	0	0.000000	0.000000	0.000000	0.124641	0.000000	1.000000	-0.000005
0.675000	0.225000	0.000000	14	5	0	0.000000	0.000000	0.000000	0.114985	0.000000	1.000000	-0.000005
0.725000	0.225000	0.000000	15	5	0	0.000000	0.000000	0.000000	0.104248	0.000000	1.000000	-0.000004
0.775000	0.225000	0.000000	16	5	0	0.000000	0.000000	0.000000	0.091888	0.000000	1.000000	-0.000004
0.825000	0.225000	0.000000	17	5	0	0.000000	0.000000	0.000000	0.077247	0.000000	1.000000	-0.000004
0.875000	0.225000	0.000000	18	5	0	0.000000	0.000000	0.000000	0.059679	0.000000	1.000000	-0.000004
0.925000	0.225000	0.000000	19	5	0	0.000000	0.000000	0.000000	0.038692	0.000000	1.000000	-0.000004
0.975000	0.225000	0.000000	20	5	0	0.000000	0.000000	0.000000	0.014290	0.000000	1.000000	-0.000004
1.000000	0.225000	0.000000	21	5	0	0.000000	0.000000	0.000000	0.000000	0.000000	1.000000	0.000000
0.000000	0.275000	0.000000	0	6	0	0.000000	0.000000	0.000000	1.000000	0.000000	1.000000	0.000000
0.025000	0.275000	0.000000	1	6	0	0.000000	0.000000	0.000000	0.793575	0.000000	1.000000	-0.000006
0.075000	0.275000	0.000000	2	6	0	0.000000	0.000000	0.000000	0.484745	0.000000	1.000000	-0.000006
0.125000	0.275000	0.000000	3	6	0	0.000000	0.000000	0.000000	0.320031	0.000000	1.000000	-0.000006
0.175000	0.275000	0.000000	4	6	0	0.000000	0.000000	0.000000	0.242020	0.000000	1.000000	-0.000006
0.225000	0.275000	0.000000	5	6	0	0.000000	0.000000	0.000000	0.204661	0.000000	1.000000	-0.000005
0.275000	0.275000	0.000000	6	6	0	0.000000	0.000000	0.000000	0.184978	0.000000	1.000000	-0.000005
0.325000	0.275000	0.000000	7	6	0	0.000000	0.000000	0.000000	0.172833	0.000000	1.000000	-0.000005
0.375000	0.275000	0.000000	8	6	0	0.000000	0.000000	0.000000	0.163862	0.000000	1.000000	-0.000005
0.425000	0.275000	0.000000	9	6	0	0.000000	0.000000	0.000000	0.156124	0.000000	1.000000	-0.000005
0.475000	0.275000	0.000000	10	6	0	0.000000	0.000000	0.000000	0.148697	0.000000	1.000000	-0.000005
0.525000	0.275000	0.000000	11	6	0	0.000000	0.000000	0.000000	0.141115	0.000000	1.000000	-0.000005
0.575000	0.275000	0.000000	12	6	0	0.000000	0.000000	0.000000	0.133099	0.000000	1.000000	-0.000005
0.625000	0.275000	0.000000	13	6	0	0.000000	0.000000	0.000000	0.124430	0.000000	1.000000	-0.000005
0.675000	0.275000	0.000000	14	6	0	0.000000	0.000000	0.000000	0.114890	0.000000	1.000000	-0.000005
0.725000	0.275000	0.000000	15	6	0	0.000000	0.000000	0.000000	0.104217	0.000000	1.000000	-0.000004
0.775000	0.275000	0.000000	16	6	0	0.000000	0.000000	0.000000	0.091914	0.000000	1.000000	-0.000004
0.825000	0.275000	0.000000	17	6	0	0.000000	0.000000	0.000000	0.077321	0.000000	1.000000	-0.000004
0.875000	0.275000	0.000000	18	6	0	0.000000	0.000000	0.000000	0.059792	0.000000	1.000000	-0.000004
0.925000	0.275000	0.000000	19	6	0	0.000000	0.000000	0.000000	0.038812	0.000000	1.000000	-0.000004
0.975000	0.275000	0.000000	20	6	0	0.000000	0.000000	0.000000	0.014356	0.000000	1.000000	-0.000004
1.000000	0.275000	0.000000	21	6	0	0.000000	0.000000	0.000000	0.000000	0.000000	1.000000	0.000000
0.000000	0.325000	0.000000	0	7	0	0.000000	0.000000	0.000000	1.000000	0.000000	1.000000	0.000000
0.025000	0.325000	0.000000	1	7	0	0.000000	0.000000	0.000000	0.793046	0.000000	1.000000	-0.000006
0.075000	0.325000	0.000000	2	7	0	0.000000	0.000000	0.000000	0.483493	0.000000	1.000000	-0.000006
0.125000	0.325000	0.000000	3	7	0	0.000000	0.000000	0.000000	0.318463	0.000000	1.000000	-0.000006
0.175000	0.325000	0.000000	4	7	0	0.000000	0.000000	0.000000	0.240400	0.000000	1.000000	-0.000006
0.225000	0.325000	0.000000	5	7	0	0.000000	0.000000	0.000000	0.203133	0.000000	1.000000	-0.000005
0.275000	0.325000	0.000000	6	7	0	0.000000	0.000000	0.000000	0.183608	0.000000	1.000000	-0.000005
0.325000	0.325000	0.000000	7	7	0	0.000000	0.000000	0.000000	0.171642	0.000000	1.000000	-0.000005
0.375000	0.325000	0.000000	8	7	0	0.000000	0.000000	0.000000	0.162847	0.000000	1.000000	-0.000005
0.425000	0.325000	0.000000	9	7	0	0.000000	0.000000	0.000000	0.155273	0.000000	1.000000	-0.000005
0.475000	0.325000	0.000000	10	7	0	0.000000	0.000000	0.000000	0.147983	0.000000	1.000000	-0.000005
0.525000	0.325000	0.000000	11	7	0	0.000000	0.000000	0.000000	0.140507	0.000000	1.000000	-0.000005
0.575000	0.325000	0.000000	12	7	0	0.000000	0.000000	0.000000	0.132560	0.000000	1.000000	-0.000005
0.625000	0.325000	0.000000	13	7	0	0.000000	0.000000	0.000000	0.123926	0.000000	1.000000	-0.000005
0.675000	0.325000	0.000000	14	7	0	0.000000	0.000000	0.000000	0.114394	0.000000	1.000000	-0.000005
0.725000	0.325000	0.000000	15	7	0	0.000000	0.000000	0.000000	0.103716	0.000000	1.000000	-0.000004
0.775000	0.325000	0.000000	16	7	0	0.000000	0.000000	0.000000	0.091448	0.000000	1.000000	-0.000004
0.825000	0.325000	0.000000	17	7	0	0.000000	0.000000	0.000000	0.076931	0.000000	1.000000	-0.000004
0.875000	0.325000	0.000000	18	7	0	0.000000	0.000000	0.000000	0.059511	0.000000	1.000000	-0.000004
0.925000	0.325000	0.000000	19	7	0	0.000000	0.000000	0.000000	0.038657	0.000000	1.000000	-0.000004
0.975000	0.325000	0.000000	20	7	0	0.000000	0.000000	0.000000	0.014317	0.000000	1.000000	-0.000004
1.000000	0.325000	0.000000	21	7	0	0.000000	0.000000	0.000000	0.000000	0.000000	1.000000	0.000000
0.000000	0.375000	0.000000	0	8	0	0.000000	0.000000	0.000000	1.000000	0.000000	1.000000	0.000000
0.025000	0.375000	0.000000	1	8	0	0.000000	0.000000	0.000000	0.792959	0.000000	1.000000	-0.000006
0.075000	0.375000	0.000000	2	8	0	0.000000	0.000000	0.000000	0.483163	0.000000	1.000000	-0.000006
0.125000	0.375000	0.000000	3	8	0	0.000000	0.000000	0.000000	0.317892	0.000000	1.000000	-0.000006
0.175000	0.375000	0.000000	4	8	0	0.000000	0.000000	0.000000	0.239672	0.000000	1.000000	-0.000006
0.225000	0.375000	0.000000	5	8	0	0.000000	0.000000	0.000000	0.202346	0.000000	1.000000	-0.000005
0.275000	0.375000	0.000000	6	8	0	0.000000	0.000000	0.000000	0.182828	0.000000	1.000000	-0.000005
0.325000	0.375000	0.000000	7	8	0	0.000000	0.000000	0.000000	0.170904	0.000000	1.000000	-0.000005
0.375000	0.375000	0.000000	8	8	0	0.000000	0.000000	0.000000	0.162159	0.000000	1.000000	-0.000005
0.425000	0.375000	0.000000	9	8	0	0.000000	0.000000	0.000000	0.154629	0.000000	1.000000	-0.000005
0.475000	0.375000	0.000000	10	8	0	0.000000	0.000000	0.000000	0.147369	0.000000	1.000000	-0.000005
0.525000	0.375000	0.000000	11	8	0	0.000000	0.000000	0.000000	0.139903	0.000000	1.000000	-0.000005
0.575000	0.375000	0.000000	12	8	0	0.000000	0.000000	0.000000	0.131948	0.000000	1.000000	-0.000005
0.625000	0.375000	0.000000	13	8	0	0.000000	0.000000	0.000000	0.123297	0.000000	1.000000	-0.000005
0.675000	0.375000	0.000000	14	8	0	0.000000	0.000000	0.000000	0.113746	0.000000	1.000000	-0.000005
0.725000	0.375000	0.000000	15	8	0	0.000000	0.000000	0.000000	0.103059	0.000000	1.000000	-0.000004
0.775000	0.375000	0.000000	16	8	0	0.000000	0.000000	0.000000	0.090833	0.000000	1.000000	-0.000004
0.825000	0.375000	0.000000	17	8	0	0.000000	0.000000	0.000000	0.076406	0.000000	1.000000	-0.000004
0.875000	0.375000	0.000000	18	8	0	0.000000	0.000000	0.000000	0.059115	0.000000	1.000000	-0.000004
0.925000	0.375000	0.000000	19	8	0	0.000000	0.000000	0.000000	0.038417	0.000000	1.000000	-0.000004
0.975000	0.375000	0.000000	20	8	0	0.000000	0.000000	0.000000	0.014241	0.000000	1.000000	-0.000004
1.000000	0.375000	0.000000	21	8	0	0.000000	0.000000	0.000000	0.000000	0.000000	1.000000	0.000000
0.000000	0.425000	0.000000	0	9	0	0.000000	0.000000	0.000000	1.000000	0.000000	1.000000	0.000000
0.025000	0.425000	0.000000	1	9	0	0.000000	0.000000	0.000000	0.793021	0.000000	1.000000	-0.000006
0.075000	0.425000	0.000000	2	9	0	0.000000	0.000000	0.000000	0.483184	0.000000	1.000000	-0.000006
0.125000	0.425000	0.000000	3	9	0	0.000000	0.000000	0.000000	0.317752	0.000000	1.000000	-0.000006
0.175000	0.425000	0.000000	4	9	0	0.000000	0.000000	0.000000	0.239379	0.000000	1.000000	-0.000006
0.225000	0.425000	0.000000	5	9	0	0.000000	0.000000	0.000000	0.201961	0.000000	1.000000	-0.000005
0.275000	0.425000	0.000000	6	9	0	0.000000	0.000000	0.000000	0.182399	0.000000	1.000000	-0.000005
0.325000	0.425000	0.000000	7	9	0	0.000000	0.000000	0.000000	0.170460	0.000000	1.000000	-0.000005
0.375000	0.425000	0.000000	8	9	0	0.000000	0.000000	0.000000	0.161708	0.000000	1.000000	-0.000005
0.425000	0.425000	0.000000	9	9	0	0.000000	0.000000	0.000000	0.154172	0.000000	1.000000	-0.000005
0.475000	0.425000	0.000000	10	9	0	0.000000	0.000000	0.000000	0.146897	0.000000	1.000000	-0.000005
0.525000	0.425000	0.000000	11	9	0	0.000000	0.000000	0.000000	0.139409	0.000000	1.000000	-0.000005
0.575000	0.425000	0.000000	12	9	0	0.000000	0.000000	0.000000	0.131429	0.000000	1.000000	-0.000005
0.625000	0.425000	0.000000	13	9	0	0.000000	0.000000	0.000000	0.122753	0.000000	1.000000	-0.000005
0.675000	0.425000	0.000000	14	9	0	0.000000	0.000000	0.000000	0.113188	0.000000	1.000000	-0.000005
0.725000	0.425000	0.000000	15	9	0	0.000000	0.000000	0.000000	0.102504	0.000000	1.000000	-0.000004
0.775000	0.425000	0.000000	16	9	0	0.000000	0.000000	0.000000	0.090320	0.000000	1.000000	-0.000004
0.825000	0.425000	0.000000	17	9	0	0.000000	0.000000	0.000000	0.075970	0.000000	1.000000	-0.000004
0.875000	0.425000	0.000000	18	9	0	0.000000	0.000000	0.000000	0.058786	0.000000	1.000000	-0.000004
0.925000	0.425000	0.000000	19	9	0	0.000000	0.000000	0.000000	0.038214	0.000000	1.000000	-0.000004
0.975000	0.425000	0.000000	20	9	0	0.000000	0.000000	0.000000	0.014174	0.000000	1.000000	-0.000004
1.000000	0.425000	0.000000	21	9	0	0.000000	0.000000	0.000000	0.000000	0.000000	1.000000	0.000000
0.000000	0.475000	0.000000	0	10	0	0.000000	0.000000	0.000000	1.000000	0.000000	1.000000	0.000000
0.025000	0.475000	0.000000	1	10	0	0.000000	0.000000	0.000000	0.793085	0.000000	1.000000	-0.000006
0.075000	0.475000	0.000000	2	10	0	0.000000	0.000000	0.000000	0.483259	0.000000	1.000000	-0.000006
0.125000	0.475000	0.000000	3	10	0	0.000000	0.000000	0.000000	0.317745	0.000000	1.000000	-0.000006
0.175000	0.475000	0.000000	4	10	0	0.000000	0.000000	0.000000	0.239284	0.000000	1.000000	-0.000006
0.225000	0.475000	0.000000	5	10	0	0.000000	0.000000	0.000000	0.201803	0.000000	1.000000	-0.000005
0.275000	0.475000	0.000000	6	10	0	0.000000	0.000000	0.000000	0.182206	0.000000	1.000000	-0.000005
0.325000	0.475000	0.000000	7	10	0	0.000000	0.000000	0.000000	0.170246	0.000000	1.000000	-0.000005
0.375000	0.475000	0.000000	8	10	0	0.000000	0.000000	0.000000	0.161480	0.000000	1.000000	-0.000005
0.425000	0.475000	0.000000	9	10	0	0.000000	0.000000	0.000000	0.153929	0.000000	1.000000	-0.000005
0.475000	0.475000	0.000000	10	10	0	0.000000	0.000000	0.000000	0.146639	0.000000	1.000000	-0.000005
0.525000	0.475000	0.000000	11	10	0	0.000000	0.000000	0.000000	0.139132	0.000000	1.000000	-0.000005
0.575000	0.475000	0.000000	12	10	0	0.000000	0.000000	0.000000	0.131134	0.000000	1.000000	-0.000005
0.625000	0.475000	0.000000	13	10	0	0.000000	0.000000	0.000000	0.122445	0.000000	1.000000	-0.000005
0.675000	0.475000	0.000000	14	10	0	0.000000	0.000000	0.000000	0.112875	0.000000	1.000000	-0.000005
0.725000	0.475000	0.000000	15	10	0	0.000000	0.000000	0.000000	0.102197	0.000000	1.000000	-0.000004
0.775000	0.475000	0.000000	16	10	0	0.000000	0.000000	0.000000	0.090039	0.000000	1.000000	-0.000004
0.825000	0.475000	0.000000	17	10	0	0.000000	0.000000	0.000000	0.075733	0.000000	1.000000	-0.000004
0.875000	0.475000	0.000000	18	10	0	0.000000	0.000000	0.000000	0.058607	0.000000	1.000000	-0.000004
0.925000	0.475000	0.000000	19	10	0	0.000000	0.000000	0.000000	0.038103	0.000000	1.000000	-0.000004
0.975000	0.475000	0.000000	20	10	0	0.000000	0.000000	0.000000	0.014136	0.000000	1.000000	-0.000004
1.000000	0.475000	0.000000	21	10	0	0.000000	0.000000	0.000000	0.000000	0.000000	1.000000	0.000000
0.000000	0.525000	0.000000	0	11	0	0.000000	0.000000	0.000000	1.000000	0.000000	1.000000	0.000000
0.025000	0.525000	0.000000	1	11	0	0.000000	0.000000	0.000000	0.793085	0.000000	1.000000	-0.000006
0.075000	0.525000	0.000000	2	11	0	0.000000	0.000000	0.000000	0.483259	0.000000	1.000000	-0.000006
0.125000	0.525000	0.000000	3	11	0	0.000000	0.000000	0.000000	0.317745	0.000000	1.000000	-0.000006
0.175000	0.525000	0.000000	4	11	0	0.000000	0.000000	0.000000	0.239284	0.000000	1.000000	-0.000006
0.225000	0.525000	0.000000	5	11	0	0.000000	0.000000	0.000000	0.201803	0.000000	1.000000	-0.000005
0.275000	0.525000	0.000000	6	11	0	0.000000	0.000000	0.000000	0.182206	0.000000	1.000000	-0.000005
0.325000	0.525000	0.000000	7	11	0	0.000000	0.000000	0.000000	0.170246	0.000000	1.000000	-0.000005
0.375000	0.525000	0.000000	8	11	0	0.000000	0.000000	0.000000	0.161480	0.000000	1.000000	-0.000005
0.425000	0.525000	0.000000	9	11	0	0.000000	0.000000	0.000000	0.153929	0.000000	1.000000	-0.000005
0.475000	0.525000	0.000000	10	11	0	0.000000	0.000000	0.000000	0.146639	0.000000	1.000000	-0.000005
0.525000	0.525000	0.000000	11	11	0	0.000000	0.000000	0.000000	0.139132	0.000000	1.000000	-0.000005
0.575000	0.525000	0.000000	12	11	0	0.000000	0.000000	0.000000	0.131134	0.000000	1.000000	-0.000005
0.625000	0.525000	0.000000	13	11	0	0.000000	0.000000	0.000000	0.122445	0.000000	1.000000	-0.000005
0.675000	0.525000	0.000000	14	11	0	0.000000	0.000000	0.000000	0.112875	0.000000	1.000000	-0.000005
0.725000	0.525000	0.000000	15	11	0	0.000000	0.000000	0.000000	0.102197	0.000000	1.000000	-0.000004
0.775000	0.525000	0.000000	16	11	0	0.000000	0.000000	0.000000	0.090039	0.000000	1.000000	-0.000004
0.825000	0.525000	0.000000	17	11	0	0.000000	0.000000	0.000000	0.075733	0.000000	1.000000	-0.000004
0.875000	0.525000	0.000000	18	11	0	0.000000	0.000000	0.000000	0.058607	0.000000	1.000000	-0.000004
0.925000	0.525000	0.000000	19	11	0	0.000000	0.000000	0.000000	0.038103	0.000000	1.000000	-0.000004
0.975000	0.525000	0.000000	20	11	0	0.000000	0.000000	0.000000	0.014136	0.000000	1.000000	-0.000004
1.000000	0.525000	0.000000	21	11	0	0.000000	0.000000	0.000000	0.000000	0.000000	1.000000	0.000000
0.000000	0.575000	0.000000	0	12	0	0.000000	0.000000	0.000000	1.000000	0.000000	1.000000	0.000000
0.025000	0.575000	0.000000	1	12	0	0.000000	0.000000	0.000000	0.793021	0.000000	1.000000	-0.000006
0.075000	0.575000	0.000000	2	12	0	0.000000	0.000000	0.000000	0.483184	0.000000	1.000000	-0.000006
0.125000	0.575000	0.000000	3	12	0	0.000000	0.000000	0.000000	0.317752	0.000000	1.000000	-0.000006
0.175000	0.575000	0.000000	4	12	0	0.000000	0.000000	0.000000	0.239379	0.000000	1.000000	-0.000006
0.225000	0.575000	0.000000	5	12	0	0.000000	0.000000	0.000000	0.201961	0.000000	1.000000	-0.000005
0.275000	0.575000	0.000000	6	12	0	0.000000	0.000000	0.000000	0.182399	0.000000	1.000000	-0.000005
0.325000	0.575000	0.000000	7	12	0	0.000000	0.000000	0.000000	0.170460	0.000000	1.000000	-0.000005
0.375000	0.575000	0.000000	8	12	0	0.000000	0.000000	0.000000	0.161708	0.000000	1.000000	-0.000005
0.425000	0.575000	0.000000	9	12	0	0.000000	0.000000	0.000000	0.154172	0.000000	1.000000	-0.000005
0.475000	0.575000	0.000000	10	12	0	0.000000	0.000000	0.000000	0.146897	0.000000	1.000000	-0.000005
0.525000	0.575000	0.000000	11	12	0	0.000000	0.000000	0.000000	0.139409	0.000000	1.000000	-0.000005
0.575000	0.575000	0.000000	12	12	0	0.000000	0.000000	0.000000	0.131429	0.000000	1.000000	-0.000005
0.625000	0.575000	0.000000	13	12	0	0.000000	0.000000	0.000000	0.122753	0.000000	1.000000	-0.000005
0.675000	0.575000	0.000000	14	12	0	0.000000	0.000000	0.000000	0.113188	0.000000	1.000000	-0.000005
0.725000	0.575000	0.000000	15	12	0	0.000000	0.000000	0.000000	0.102504	0.000000	1.000000	-0.000004
0.775000	0.575000	0.000000	16	12	0	0.000000	0.000000	0.000000	0.090320	0.000000	1.000000	-0.000004
0.825000	0.575000	0.000000	17	12	0	0.000000	0.000000	0.000000	0.075970	0.000000	1.000000	-0.000004
0.875000	0.575000	0.000000	18	12	0	0.000000	0.000000	0.000000	0.058786	0.000000	1.000000	-0.000004
0.925000	0.575000	0.000000	19	12	0	0.000000	0.000000	0.000000	0.038214	0.000000	1.000000	-0.000004
0.975000	0.575000	0.000000	20	12	0	0.000000	0.000000	0.000000	0.014174	0.000000	1.000000	-0.000004
1.000000	0.575000	0.000000	21	12	0	0.000000	0.000000	0.000000	0.000000	0.000000	1.000000	0.000000
0.000000	0.625000	0.000000	0	13	0	0.000000	0.000000	0.000000	1.000000	0.000000	1.000000	0.000000
0.025000	0.625000	0.000000	1	13	0	0.000000	0.000000	0.000000	0.792959	0.000000	1.000000	-0.000006
0.075000	0.625000	0.000000	2	13	0	0.000000	0.000000	0.000000	0.483163	0.000000	1.000000	-0.000006
0.125000	0.625000	0.000000	3	13	0	0.000000	0.000000	0.000000	0.317892	0.000000	1.000000	-0.000006
0.175000	0.625000	0.000000	4	13	0	0.000000	0.000000	0.000000	0.239672	0.000000	1.000000	-0.000006
0.225000	0.625000	0.000000	5	13	0	0.000000	0.000000	0.000000	0.202346	0.000000	1.000000	-0.000005
0.275000	0.625000	0.000000	6	13	0	0.000000	0.000000	0.000000	0.182828	0.000000	1.000000	-0.000005
0.325000	0.625000	0.000000	7	13	0	0.000000	0.000000	0.000000	0.170904	0.000000	1.000000	-0.000005
0.375000	0.625000	0.000000	8	13	0	0.000000	0.000000	0.000000	0.162159	0.000000	1.000000	-0.000005
0.425000	0.625000	0.000000	9	13	0	0.000000	0.000000	0.000000	0.154629	0.000000	1.000000	-0.000005
0.475000	0.625000	0.000000	10	13	0	0.000000	0.000000	0.000000	0.147369	0.000000	1.000000	-0.000005
0.525000	0.625000	0.000000	11	13	0	0.000000	0.000000	0.000000	0.139903	0.000000	1.000000	-0.000005
0.575000	0.625000	0.000000	12	13	0	0.000000	0.000000	0.000000	0.131948	0.000000	1.000000	-0.000005
0.625000	0.625000	0.000000	13	13	0	0.000000	0.000000	0.000000	0.123297	0.000000	1.000000	-0.000005
0.675000	0.625000	0.000000	14	13	0	0.000000	0.000000	0.000000	0.113746	0.000000	1.000000	-0.000005
0.725000	0.625000	0.000000	15	13	0	0.000000	0.000000	0.000000	0.103059	0.000000	1.000000	-0.000004
0.775000	0.625000	0.000000	16	13	0	0.000000	0.000000	0.000000	0.090833	0.000000	1.000000	-0.000004
0.825000	0.625000	0.000000	17	13	0	0.000000	0.000000	0.000000	0.076406	0.000000	1.000000	-0.000004
0.875000	0.625000	0.000000	18	13	0	0.000000	0.000000	0.000000	0.059115	0.000000	1.000000	-0.000004