TITLE = "dt=10.000000s, t=7260.000000s, nu=0.000015, Lx=1.000000, Ly=1.000000, Lz=1.000000, Nx=22, Ny=22, Nz=22 "
VARIABLES =X, Y, Z, I, J, K, U, V, W, T, Xi, FlagP, P 
ZONE F=POINT, I=22, J=22, K=22
0.000000	0.000000	0.000000	0	0	0	0.000000	0.000000	0.000000	0.666663	0.000000	1.000000	0.000000
0.025000	0.000000	0.000000	1	0	0	0.000000	0.000000	0.000000	0.000000	0.000000	1.000000	0.000000
0.075000	0.000000	0.000000	2	0	0	0.000000	0.000000	0.000000	0.000000	0.000000	1.000000	0.000000
0.125000	0.000000	0.000000	3	0	0	0.000000	0.000000	0.000000	0.000000	0.000000	1.000000	0.000000
0.175000	0.000000	0.000000	4	0	0	0.000000	0.000000	0.000000	0.000000	0.000000	1.000000	0.000000
0.225000	0.000000	0.000000	5	0	0	0.000000	0.000000	0.000000	0.000000	0.000000	1.000000	0.000000
0.275000	0.000000	0.000000	6	0	0	0.000000	0.000000	0.000000	0.000000	0.000000	1.000000	0.000000
0.325000	0.000000	0.000000	7	0	0	0.000000	0.000000	0.000000	0.000000	0.000000	1.000000	0.000000
0.375000	0.000000	0.000000	8	0	0	0.000000	0.000000	0.000000	0.000000	0.000000	1.000000	0.000000
0.425000	0.000000	0.000000	9	0	0	0.000000	0.000000	0.000000	0.000000	0.000000	1.000000	0.000000
0.475000	0.000000	0.000000	10	0	0	0.000000	0.000000	0.000000	0.000000	0.000000	1.000000	0.000000
0.525000	0.000000	0.000000	11	0	0	0.000000	0.000000	0.000000	0.000000	0.000000	1.000000	0.000000
0.575000	0.000000	0.000000	12	0	0	0.000000	0.000000	0.000000	0.000000	0.000000	1.000000	0.000000
0.625000	0.000000	0.000000	13	0	0	0.000000	0.000000	0.000000	0.000000	0.000000	1.000000	0.000000
0.675000	0.000000	0.000000	14	0	0	0.000000	0.000000	0.000000	0.000000	0.000000	1.000000	0.000000
0.725000	0.000000	0.000000	15	0	0	0.000000	0.000000	0.000000	0.000000	0.000000	1.000000	0.000000
0.775000	0.000000	0.000000	16	0	0	0.000000	0.000000	0.000000	0.000000	0.000000	1.000000	0.000000
0.825000	0.000000	0.000000	17	0	0	0.000000	0.000000	0.000000	0.000000	0.000000	1.000000	0.000000
0.875000	0.000000	0.000000	18	0	0	0.000000	0.000000	0.000000	0.000000	0.000000	1.000000	0.000000
0.925000	0.000000	0.000000	19	0	0	0.000000	0.000000	0.000000	0.000000	0.000000	1.000000	0.000000
0.975000	0.000000	0.000000	20	0	0	0.000000	0.000000	0.000000	0.000000	0.000000	1.000000	0.000000
1.000000	0.000000	0.000000	21	0	0	0.000000	0.000000	0.000000	-0.000004	0.000000	1.000000	0.000000
0.000000	0.025000	0.000000	0	1	0	0.000000	0.000000	0.000000	0.999994	0.000000	1.000000	0.000000
0.025000	0.025000	0.000000	1	1	0	0.000000	0.000000	0.000000	0.828953	0.000000	1.000000	-0.000006
0.075000	0.025000	0.000000	2	1	0	0.000000	0.000000	0.000000	0.553254	0.000000	1.000000	-0.000006
0.125000	0.025000	0.000000	3	1	0	0.000000	0.000000	0.000000	0.384655	0.000000	1.000000	-0.000006
0.175000	0.025000	0.000000	4	1	0	0.000000	0.000000	0.000000	0.292089	0.000000	1.000000	-0.000006
0.225000	0.025000	0.000000	5	1	0	0.000000	0.000000	0.000000	0.241540	0.000000	1.000000	-0.000005
0.275000	0.025000	0.000000	6	1	0	0.000000	0.000000	0.000000	0.212470	0.000000	1.000000	-0.000005
0.325000	0.025000	0.000000	7	1	0	0.000000	0.000000	0.000000	0.194077	0.000000	1.000000	-0.000005
0.375000	0.025000	0.000000	8	1	0	0.000000	0.000000	0.000000	0.180853	0.000000	1.000000	-0.000005
0.425000	0.025000	0.000000	9	1	0	0.000000	0.000000	0.000000	0.169986	0.000000	1.000000	-0.000005
0.475000	0.025000	0.000000	10	1	0	0.000000	0.000000	0.000000	0.160012	0.000000	1.000000	-0.000005
0.525000	0.025000	0.000000	11	1	0	0.000000	0.000000	0.000000	0.150140	0.000000	1.000000	-0.000005
0.575000	0.025000	0.000000	12	1	0	0.000000	0.000000	0.000000	0.139900	0.000000	1.000000	-0.000005
0.625000	0.025000	0.000000	13	1	0	0.000000	0.000000	0.000000	0.129000	0.000000	1.000000	-0.000005
0.675000	0.025000	0.000000	14	1	0	0.000000	0.000000	0.000000	0.117220	0.000000	1.000000	-0.000005
0.725000	0.025000	0.000000	15	1	0	0.000000	0.000000	0.000000	0.104356	0.000000	1.000000	-0.000004
0.775000	0.025000	0.000000	16	1	0	0.000000	0.000000	0.000000	0.090169	0.000000	1.000000	-0.000004
0.825000	0.025000	0.000000	17	1	0	0.000000	0.000000	0.000000	0.074335	0.000000	1.000000	-0.000004
0.875000	0.025000	0.000000	18	1	0	0.000000	0.000000	0.000000	0.056390	0.000000	1.000000	-0.000004
0.925000	0.025000	0.000000	19	1	0	0.000000	0.000000	0.000000	0.035947	0.000000	1.000000	-0.000004
0.975000	0.025000	0.000000	20	1	0	0.000000	0.000000	0.000000	0.012966	0.000000	1.000000	-0.000004
1.000000	0.025000	0.000000	21	1	0	0.000000	0.000000	0.000000	-0.000006	0.000000	1.000000	0.000000
0.000000	0.075000	0.000000	0	2	0	0.000000	0.000000	0.000000	0.999994	0.000000	1.000000	0.000000
0.025000	0.075000	0.000000	1	2	0	0.000000	0.000000	0.000000	0.814883	0.000000	1.000000	-0.000006
0.075000	0.075000	0.000000	2	2	0	0.000000	0.000000	0.000000	0.527097	0.000000	1.000000	-0.000006
0.125000	0.075000	0.000000	3	2	0	0.000000	0.000000	0.000000	0.361740	0.000000	1.000000	-0.000006
0.175000	0.075000	0.000000	4	2	0	0.000000	0.000000	0.000000	0.275874	0.000000	1.000000	-0.000006
0.225000	0.075000	0.000000	5	2	0	0.000000	0.000000	0.000000	0.230610	0.000000	1.000000	-0.000005
0.275000	0.075000	0.000000	6	2	0	0.000000	0.000000	0.000000	0.204873	0.000000	1.000000	-0.000005
0.325000	0.075000	0.000000	7	2	0	0.000000	0.000000	0.000000	0.188410	0.000000	1.000000	-0.000005
0.375000	0.075000	0.000000	8	2	0	0.000000	0.000000	0.000000	0.176291	0.000000	1.000000	-0.000005
0.425000	0.075000	0.000000	9	2	0	0.000000	0.000000	0.000000	0.166063	0.000000	1.000000	-0.000005
0.475000	0.075000	0.000000	10	2	0	0.000000	0.000000	0.000000	0.156479	0.000000	1.000000	-0.000005
0.525000	0.075000	0.000000	11	2	0	0.000000	0.000000	0.000000	0.146882	0.000000	1.000000	-0.000005
0.575000	0.075000	0.000000	12	2	0	0.000000	0.000000	0.000000	0.136901	0.000000	1.000000	-0.000005
0.625000	0.075000	0.000000	13	2	0	0.000000	0.000000	0.000000	0.126312	0.000000	1.000000	-0.000005
0.675000	0.075000	0.000000	14	2	0	0.000000	0.000000	0.000000	0.114943	0.000000	1.000000	-0.000005
0.725000	0.075000	0.000000	15	2	0	0.000000	0.000000	0.000000	0.102614	0.000000	1.000000	-0.000004
0.775000	0.075000	0.000000	16	2	0	0.000000	0.000000	0.000000	0.089060	0.000000	1.000000	-0.000004
0.825000	0.075000	0.000000	17	2	0	0.000000	0.000000	0.000000	0.073790	0.000000	1.000000	-0.000004
0.875000	0.075000	0.000000	18	2	0	0.000000	0.000000	0.000000	0.056267	0.000000	1.000000	-0.000004
0.925000	0.075000	0.000000	19	2	0	0.000000	0.000000	0.000000	0.036066	0.000000	1.000000	-0.000004
0.975000	0.075000	0.000000	20	2	0	0.000000	0.000000	0.000000	0.013185	0.000000	1.000000	-0.000004
1.000000	0.075000	0.000000	21	2	0	0.000000	0.000000	0.000000	-0.000006	0.000000	1.000000	0.000000
0.000000	0.125000	0.000000	0	3	0	0.000000	0.000000	0.000000	0.999994	0.000000	1.000000	0.000000
0.025000	0.125000	0.000000	1	3	0	0.000000	0.000000	0.000000	0.803974	0.000000	1.000000	-0.000006
0.075000	0.125000	0.000000	2	3	0	0.000000	0.000000	0.000000	0.506063	0.000000	1.000000	-0.000006
0.125000	0.125000	0.000000	3	3	0	0.000000	0.000000	0.000000	0.342030	0.000000	1.000000	-0.000006
0.175000	0.125000	0.000000	4	3	0	0.000000	0.000000	0.000000	0.260756	0.000000	1.000000	-0.000006
0.225000	0.125000	0.000000	5	3	0	0.000000	0.000000	0.000000	0.219625	0.000000	1.000000	-0.000005
0.275000	0.125000	0.000000	6	3	0	0.000000	0.000000	0.000000	0.196778	0.000000	1.000000	-0.000005
0.325000	0.125000	0.000000	7	3	0	0.000000	0.000000	0.000000	0.182176	0.000000	1.000000	-0.000005
0.375000	0.125000	0.000000	8	3	0	0.000000	0.000000	0.000000	0.171259	0.000000	1.000000	-0.000005
0.425000	0.125000	0.000000	9	3	0	0.000000	0.000000	0.000000	0.161869	0.000000	1.000000	-0.000005
0.475000	0.125000	0.000000	10	3	0	0.000000	0.000000	0.000000	0.152948	0.000000	1.000000	-0.000005
0.525000	0.125000	0.000000	11	3	0	0.000000	0.000000	0.000000	0.143963	0.000000	1.000000	-0.000005
0.575000	0.125000	0.000000	12	3	0	0.000000	0.000000	0.000000	0.134620	0.000000	1.000000	-0.000005
0.625000	0.125000	0.000000	13	3	0	0.000000	0.000000	0.000000	0.124730	0.000000	1.000000	-0.000005
0.675000	0.125000	0.000000	14	3	0	0.000000	0.000000	0.000000	0.114125	0.000000	1.000000	-0.000005
0.725000	0.125000	0.000000	15	3	0	0.000000	0.000000	0.000000	0.102598	0.000000	1.000000	-0.000004
0.775000	0.125000	0.000000	16	3	0	0.000000	0.000000	0.000000	0.089712	0.000000	1.000000	-0.000004
0.825000	0.125000	0.000000	17	3	0	0.000000	0.000000	0.000000	0.074864	0.000000	1.000000	-0.000004
0.875000	0.125000	0.000000	18	3	0	0.000000	0.000000	0.000000	0.057452	0.000000	1.000000	-0.000004
0.925000	0.125000	0.000000	19	3	0	0.000000	0.000000	0.000000	0.037026	0.000000	1.000000	-0.000004
0.975000	0.125000	0.000000	20	3	0	0.000000	0.000000	0.000000	0.013612	0.000000	1.000000	-0.000004
1.000000	0.125000	0.000000	21	3	0	0.000000	0.000000	0.000000	-0.000006	0.000000	1.000000	0.000000
0.000000	0.175000	0.000000	0	4	0	0.000000	0.000000	0.000000	0.999994	0.000000	1.000000	0.000000
0.025000	0.175000	0.000000	1	4	0	0.000000	0.000000	0.000000	0.797612	0.000000	1.000000	-0.000006
0.075000	0.175000	0.000000	2	4	0	0.000000	0.000000	0.000000	0.493435	0.000000	1.000000	-0.000006
0.125000	0.175000	0.000000	3	4	0	0.000000	0.000000	0.000000	0.329519	0.000000	1.000000	-0.000006
0.175000	0.175000	0.000000	4	4	0	0.000000	0.000000	0.000000	0.250511	0.000000	1.000000	-0.000006
0.225000	0.175000	0.000000	5	4	0	0.000000	0.000000	0.000000	0.211714	0.000000	1.000000	-0.000005
0.275000	0.175000	0.000000	6	4	0	0.000000	0.000000	0.000000	0.190679	0.000000	1.000000	-0.000005
0.325000	0.175000	0.000000	7	4	0	0.000000	0.000000	0.000000	0.177386	0.000000	1.000000	-0.000005
0.375000	0.175000	0.000000	8	4	0	0.000000	0.000000	0.000000	0.167435	0.000000	1.000000	-0.000005
0.425000	0.175000	0.000000	9	4	0	0.000000	0.000000	0.000000	0.158825	0.000000	1.000000	-0.000005
0.475000	0.175000	0.000000	10	4	0	0.000000	0.000000	0.000000	0.150602	0.000000	1.000000	-0.000005
0.525000	0.175000	0.000000	11	4	0	0.000000	0.000000	0.000000	0.142292	0.000000	1.000000	-0.000005
0.575000	0.175000	0.000000	12	4	0	0.000000	0.000000	0.000000	0.133626	0.000000	1.000000	-0.000005
0.625000	0.175000	0.000000	13	4	0	0.000000	0.000000	0.000000	0.124411	0.000000	1.000000	-0.000005
0.675000	0.175000	0.000000	14	4	0	0.000000	0.000000	0.000000	0.114451	0.000000	1.000000	-0.000005
0.725000	0.175000	0.000000	15	4	0	0.000000	0.000000	0.000000	0.103491	0.000000	1.000000	-0.000004
0.775000	0.175000	0.000000	16	4	0	0.000000	0.000000	0.000000	0.090996	0.000000	1.000000	-0.000004
0.825000	0.175000	0.000000	17	4	0	0.000000	0.000000	0.000000	0.076320	0.000000	1.000000	-0.000004
0.875000	0.175000	0.000000	18	4	0	0.000000	0.000000	0.000000	0.058828	0.000000	1.000000	-0.000004
0.925000	0.175000	0.000000	19	4	0	0.000000	0.000000	0.000000	0.038051	0.000000	1.000000	-0.000004
0.975000	0.175000	0.000000	20	4	0	0.000000	0.000000	0.000000	0.014019	0.000000	1.000000	-0.000004
1.000000	0.175000	0.000000	21	4	0	0.000000	0.000000	0.000000	-0.000006	0.000000	1.000000	0.000000
0.000000	0.225000	0.000000	0	5	0	0.000000	0.000000	0.000000	0.999994	0.000000	1.000000	0.000000
0.025000	0.225000	0.000000	1	5	0	0.000000	0.000000	0.000000	0.794366	0.000000	1.000000	-0.000006
0.075000	0.225000	0.000000	2	5	0	0.000000	0.000000	0.000000	0.486791	0.000000	1.000000	-0.000006
0.125000	0.225000	0.000000	3	5	0	0.000000	0.000000	0.000000	0.322582	0.000000	1.000000	-0.000006
0.175000	0.225000	0.000000	4	5	0	0.000000	0.000000	0.000000	0.244491	0.000000	1.000000	-0.000005
0.225000	0.225000	0.000000	5	5	0	0.000000	0.000000	0.000000	0.206812	0.000000	1.000000	-0.000005
0.275000	0.225000	0.000000	6	5	0	0.000000	0.000000	0.000000	0.186755	0.000000	1.000000	-0.000005
0.325000	0.225000	0.000000	7	5	0	0.000000	0.000000	0.000000	0.174256	0.000000	1.000000	-0.000005
0.375000	0.225000	0.000000	8	5	0	0.000000	0.000000	0.000000	0.164963	0.000000	1.000000	-0.000005
0.425000	0.225000	0.000000	9	5	0	0.000000	0.000000	0.000000	0.156935	0.000000	1.000000	-0.000005
0.475000	0.225000	0.000000	10	5	0	0.000000	0.000000	0.000000	0.149248	0.000000	1.000000	-0.000005
0.525000	0.225000	0.000000	11	5	0	0.000000	0.000000	0.000000	0.141442	0.000000	1.000000	-0.000005
0.575000	0.225000	0.000000	12	5	0	0.000000	0.000000	0.000000	0.133245	0.000000	1.000000	-0.000005
0.625000	0.225000	0.000000	13	5	0	0.000000	0.000000	0.000000	0.124446	0.000000	1.000000	-0.000005
0.675000	0.225000	0.000000	14	5	0	0.000000	0.000000	0.000000	0.114828	0.000000	1.000000	-0.000005
0.725000	0.225000	0.000000	15	5	0	0.000000	0.000000	0.000000	0.104121	0.000000	1.000000	-0.000004
0.775000	0.225000	0.000000	16	5	0	0.000000	0.000000	0.000000	0.091784	0.000000	1.000000	-0.000004
0.825000	0.225000	0.000000	17	5	0	0.000000	0.000000	0.000000	0.077162	0.000000	1.000000	-0.000004
0.875000	0.225000	0.000000	18	5	0	0.000000	0.000000	0.000000	0.059611	0.000000	1.000000	-0.000004
0.925000	0.225000	0.000000	19	5	0	0.000000	0.000000	0.000000	0.038640	0.000000	1.000000	-0.000004
0.975000	0.225000	0.000000	20	5	0	0.000000	0.000000	0.000000	0.014258	0.000000	1.000000	-0.000004
1.000000	0.225000	0.000000	21	5	0	0.000000	0.000000	0.000000	-0.000006	0.000000	1.000000	0.000000
0.000000	0.275000	0.000000	0	6	0	0.000000	0.000000	0.000000	0.999994	0.000000	1.000000	0.000000
0.025000	0.275000	0.000000	1	6	0	0.000000	0.000000	0.000000	0.792921	0.000000	1.000000	-0.000006
0.075000	0.275000	0.000000	2	6	0	0.000000	0.000000	0.000000	0.483693	0.000000	1.000000	-0.000006
0.125000	0.275000	0.000000	3	6	0	0.000000	0.000000	0.000000	0.319124	0.000000	1.000000	-0.000006
0.175000	0.275000	0.000000	4	6	0	0.000000	0.000000	0.000000	0.241279	0.000000	1.000000	-0.000005
0.225000	0.275000	0.000000	5	6	0	0.000000	0.000000	0.000000	0.204034	0.000000	1.000000	-0.000005
0.275000	0.275000	0.000000	6	6	0	0.000000	0.000000	0.000000	0.184429	0.000000	1.000000	-0.000005
0.325000	0.275000	0.000000	7	6	0	0.000000	0.000000	0.000000	0.172349	0.000000	1.000000	-0.000005
0.375000	0.275000	0.000000	8	6	0	0.000000	0.000000	0.000000	0.163436	0.000000	1.000000	-0.000005
0.425000	0.275000	0.000000	9	6	0	0.000000	0.000000	0.000000	0.155756	0.000000	1.000000	-0.000005
0.475000	0.275000	0.000000	10	6	0	0.000000	0.000000	0.000000	0.148384	0.000000	1.000000	-0.000005
0.525000	0.275000	0.000000	11	6	0	0.000000	0.000000	0.000000	0.140854	0.000000	1.000000	-0.000005
0.575000	0.275000	0.000000	12	6	0	0.000000	0.000000	0.000000	0.132884	0.000000	1.000000	-0.000005
0.625000	0.275000	0.000000	13	6	0	0.000000	0.000000	0.000000	0.124256	0.000000	1.000000	-0.000005
0.675000	0.275000	0.000000	14	6	0	0.000000	0.000000	0.000000	0.114750	0.000000	1.000000	-0.000005
0.725000	0.275000	0.000000	15	6	0	0.000000	0.000000	0.000000	0.104105	0.000000	1.000000	-0.000004
0.775000	0.275000	0.000000	16	6	0	0.000000	0.000000	0.000000	0.091822	0.000000	1.000000	-0.000004
0.825000	0.275000	0.000000	17	6	0	0.000000	0.000000	0.000000	0.077246	0.000000	1.000000	-0.000004
0.875000	0.275000	0.000000	18	6	0	0.000000	0.000000	0.000000	0.059731	0.000000	1.000000	-0.000004
0.925000	0.275000	0.000000	19	6	0	0.000000	0.000000	0.000000	0.038765	0.000000	1.000000	-0.000004
0.975000	0.275000	0.000000	20	6	0	0.000000	0.000000	0.000000	0.014326	0.000000	1.000000	-0.000004
1.000000	0.275000	0.000000	21	6	0	0.000000	0.000000	0.000000	-0.000006	0.000000	1.000000	0.000000
0.000000	0.325000	0.000000	0	7	0	0.000000	0.000000	0.000000	0.999994	0.000000	1.000000	0.000000
0.025000	0.325000	0.000000	1	7	0	0.000000	0.000000	0.000000	0.792418	0.000000	1.000000	-0.000006
0.075000	0.325000	0.000000	2	7	0	0.000000	0.000000	0.000000	0.482492	0.000000	1.000000	-0.000006
0.125000	0.325000	0.000000	3	7	0	0.000000	0.000000	0.000000	0.317608	0.000000	1.000000	-0.000006
0.175000	0.325000	0.000000	4	7	0	0.000000	0.000000	0.000000	0.239706	0.000000	1.000000	-0.000005
0.225000	0.325000	0.000000	5	7	0	0.000000	0.000000	0.000000	0.202547	0.000000	1.000000	-0.000005
0.275000	0.325000	0.000000	6	7	0	0.000000	0.000000	0.000000	0.183096	0.000000	1.000000	-0.000005
0.325000	0.325000	0.000000	7	7	0	0.000000	0.000000	0.000000	0.171191	0.000000	1.000000	-0.000005
0.375000	0.325000	0.000000	8	7	0	0.000000	0.000000	0.000000	0.162451	0.000000	1.000000	-0.000005
0.425000	0.325000	0.000000	9	7	0	0.000000	0.000000	0.000000	0.154930	0.000000	1.000000	-0.000005
0.475000	0.325000	0.000000	10	7	0	0.000000	0.000000	0.000000	0.147693	0.000000	1.000000	-0.000005
0.525000	0.325000	0.000000	11	7	0	0.000000	0.000000	0.000000	0.140264	0.000000	1.000000	-0.000005
0.575000	0.325000	0.000000	12	7	0	0.000000	0.000000	0.000000	0.132361	0.000000	1.000000	-0.000005
0.625000	0.325000	0.000000	13	7	0	0.000000	0.000000	0.000000	0.123765	0.000000	1.000000	-0.000005
0.675000	0.325000	0.000000	14	7	0	0.000000	0.000000	0.000000	0.114265	0.000000	1.000000	-0.000005
0.725000	0.325000	0.000000	15	7	0	0.000000	0.000000	0.000000	0.103613	0.000000	1.000000	-0.000004
0.775000	0.325000	0.000000	16	7	0	0.000000	0.000000	0.000000	0.091364	0.000000	1.000000	-0.000004
0.825000	0.325000	0.000000	17	7	0	0.000000	0.000000	0.000000	0.076862	0.000000	1.000000	-0.000004
0.875000	0.325000	0.000000	18	7	0	0.000000	0.000000	0.000000	0.059455	0.000000	1.000000	-0.000004
0.925000	0.325000	0.000000	19	7	0	0.000000	0.000000	0.000000	0.038612	0.000000	1.000000	-0.000004
0.975000	0.325000	0.000000	20	7	0	0.000000	0.000000	0.000000	0.014288	0.000000	1.000000	-0.000004
1.000000	0.325000	0.000000	21	7	0	0.000000	0.000000	0.000000	-0.000006	0.000000	1.000000	0.000000
0.000000	0.375000	0.000000	0	8	0	0.000000	0.000000	0.000000	0.999994	0.000000	1.000000	0.000000
0.025000	0.375000	0.000000	1	8	0	0.000000	0.000000	0.000000	0.792344	0.000000	1.000000	-0.000006
0.075000	0.375000	0.000000	2	8	0	0.000000	0.000000	0.000000	0.482190	0.000000	1.000000	-0.000006
0.125000	0.375000	0.000000	3	8	0	0.000000	0.000000	0.000000	0.317066	0.000000	1.000000	-0.000006
0.175000	0.375000	0.000000	4	8	0	0.000000	0.000000	0.000000	0.239004	0.000000	1.000000	-0.000005
0.225000	0.375000	0.000000	5	8	0	0.000000	0.000000	0.000000	0.201783	0.000000	1.000000	-0.000005
0.275000	0.375000	0.000000	6	8	0	0.000000	0.000000	0.000000	0.182337	0.000000	1.000000	-0.000005
0.325000	0.375000	0.000000	7	8	0	0.000000	0.000000	0.000000	0.170471	0.000000	1.000000	-0.000005
0.375000	0.375000	0.000000	8	8	0	0.000000	0.000000	0.000000	0.161779	0.000000	1.000000	-0.000005
0.425000	0.375000	0.000000	9	8	0	0.000000	0.000000	0.000000	0.154301	0.000000	1.000000	-0.000005
0.475000	0.375000	0.000000	10	8	0	0.000000	0.000000	0.000000	0.147091	0.000000	1.000000	-0.000005
0.525000	0.375000	0.000000	11	8	0	0.000000	0.000000	0.000000	0.139671	0.000000	1.000000	-0.000005
0.575000	0.375000	0.000000	12	8	0	0.000000	0.000000	0.000000	0.131759	0.000000	1.000000	-0.000005
0.625000	0.375000	0.000000	13	8	0	0.000000	0.000000	0.000000	0.123143	0.000000	1.000000	-0.000005
0.675000	0.375000	0.000000	14	8	0	0.000000	0.000000	0.000000	0.113623	0.000000	1.000000	-0.000005
0.725000	0.375000	0.000000	15	8	0	0.000000	0.000000	0.000000	0.102961	0.000000	1.000000	-0.000004
0.775000	0.375000	0.000000	16	8	0	0.000000	0.000000	0.000000	0.090754	0.000000	1.000000	-0.000004
0.825000	0.375000	0.000000	17	8	0	0.000000	0.000000	0.000000	0.076340	0.000000	1.000000	-0.000004
0.875000	0.375000	0.000000	18	8	0	0.000000	0.000000	0.000000	0.059061	0.000000	1.000000	-0.000004
0.925000	0.375000	0.000000	19	8	0	0.000000	0.000000	0.000000	0.038374	0.000000	1.000000	-0.000004
0.975000	0.375000	0.000000	20	8	0	0.000000	0.000000	0.000000	0.014213	0.000000	1.000000	-0.000004
1.000000	0.375000	0.000000	21	8	0	0.000000	0.000000	0.000000	-0.000006	0.000000	1.000000	0.000000
0.000000	0.425000	0.000000	0	9	0	0.000000	0.000000	0.000000	0.999994	0.000000	1.000000	0.000000
0.025000	0.425000	0.000000	1	9	0	0.000000	0.000000	0.000000	0.792414	0.000000	1.000000	-0.000006
0.075000	0.425000	0.000000	2	9	0	0.000000	0.000000	0.000000	0.482225	0.000000	1.000000	-0.000006
0.125000	0.425000	0.000000	3	9	0	0.000000	0.000000	0.000000	0.316941	0.000000	1.000000	-0.000006
0.175000	0.425000	0.000000	4	9	0	0.000000	0.000000	0.000000	0.238725	0.000000	1.000000	-0.000005
0.225000	0.425000	0.000000	5	9	0	0.000000	0.000000	0.000000	0.201409	0.000000	1.000000	-0.000005
0.275000	0.425000	0.000000	6	9	0	0.000000	0.000000	0.000000	0.181919	0.000000	1.000000	-0.000005
0.325000	0.425000	0.000000	7	9	0	0.000000	0.000000	0.000000	0.170036	0.000000	1.000000	-0.000005
0.375000	0.425000	0.000000	8	9	0	0.000000	0.000000	0.000000	0.161337	0.000000	1.000000	-0.000005
0.425000	0.425000	0.000000	9	9	0	0.000000	0.000000	0.000000	0.153851	0.000000	1.000000	-0.000005
0.475000	0.425000	0.000000	10	9	0	0.000000	0.000000	0.000000	0.146626	0.000000	1.000000	-0.000005
0.525000	0.425000	0.000000	11	9	0	0.000000	0.000000	0.000000	0.139183	0.000000	1.000000	-0.000005
0.575000	0.425000	0.000000	12	9	0	0.000000	0.000000	0.000000	0.131244	0.000000	1.000000	-0.000005
0.625000	0.425000	0.000000	13	9	0	0.000000	0.000000	0.000000	0.122604	0.000000	1.000000	-0.000005
0.675000	0.425000	0.000000	14	9	0	0.000000	0.000000	0.000000	0.113069	0.000000	1.000000	-0.000005
0.725000	0.425000	0.000000	15	9	0	0.000000	0.000000	0.000000	0.102410	0.000000	1.000000	-0.000004
0.775000	0.425000	0.000000	16	9	0	0.000000	0.000000	0.000000	0.090243	0.000000	1.000000	-0.000004
0.825000	0.425000	0.000000	17	9	0	0.000000	0.000000	0.000000	0.075906	0.000000	1.000000	-0.000004
0.875000	0.425000	0.000000	18	9	0	0.000000	0.000000	0.000000	0.058733	0.000000	1.000000	-0.000004
0.925000	0.425000	0.000000	19	9	0	0.000000	0.000000	0.000000	0.038171	0.000000	1.000000	-0.000004
0.975000	0.425000	0.000000	20	9	0	0.000000	0.000000	0.000000	0.014146	0.000000	1.000000	-0.000004
1.000000	0.425000	0.000000	21	9	0	0.000000	0.000000	0.000000	-0.000006	0.000000	1.000000	0.000000
0.000000	0.475000	0.000000	0	10	0	0.000000	0.000000	0.000000	0.999994	0.000000	1.000000	0.000000
0.025000	0.475000	0.000000	1	10	0	0.000000	0.000000	0.000000	0.792480	0.000000	1.000000	-0.000006
0.075000	0.475000	0.000000	2	10	0	0.000000	0.000000	0.000000	0.482306	0.000000	1.000000	-0.000006
0.125000	0.475000	0.000000	3	10	0	0.000000	0.000000	0.000000	0.316940	0.000000	1.000000	-0.000006
0.175000	0.475000	0.000000	4	10	0	0.000000	0.000000	0.000000	0.238635	0.000000	1.000000	-0.000005
0.225000	0.475000	0.000000	5	10	0	0.000000	0.000000	0.000000	0.201257	0.000000	1.000000	-0.000005
0.275000	0.475000	0.000000	6	10	0	0.000000	0.000000	0.000000	0.181730	0.000000	1.000000	-0.000005
0.325000	0.475000	0.000000	7	10	0	0.000000	0.000000	0.000000	0.169827	0.000000	1.000000	-0.000005
0.375000	0.475000	0.000000	8	10	0	0.000000	0.000000	0.000000	0.161113	0.000000	1.000000	-0.000005
0.425000	0.475000	0.000000	9	10	0	0.000000	0.000000	0.000000	0.153612	0.000000	1.000000	-0.000005
0.475000	0.475000	0.000000	10	10	0	0.000000	0.000000	0.000000	0.146371	0.000000	1.000000	-0.000005
0.525000	0.475000	0.000000	11	10	0	0.000000	0.000000	0.000000	0.138909	0.000000	1.000000	-0.000005
0.575000	0.475000	0.000000	12	10	0	0.000000	0.000000	0.000000	0.130952	0.000000	1.000000	-0.000005
0.625000	0.475000	0.000000	13	10	0	0.000000	0.000000	0.000000	0.122298	0.000000	1.000000	-0.000005
0.675000	0.475000	0.000000	14	10	0	0.000000	0.000000	0.000000	0.112758	0.000000	1.000000	-0.000005
0.725000	0.475000	0.000000	15	10	0	0.000000	0.000000	0.000000	0.102104	0.000000	1.000000	-0.000004
0.775000	0.475000	0.000000	16	10	0	0.000000	0.000000	0.000000	0.089964	0.000000	1.000000	-0.000004
0.825000	0.475000	0.000000	17	10	0	0.000000	0.000000	0.000000	0.075670	0.000000	1.000000	-0.000004
0.875000	0.475000	0.000000	18	10	0	0.000000	0.000000	0.000000	0.058554	0.000000	1.000000	-0.000004
0.925000	0.475000	0.000000	19	10	0	0.000000	0.000000	0.000000	0.038061	0.000000	1.000000	-0.000004
0.975000	0.475000	0.000000	20	10	0	0.000000	0.000000	0.000000	0.014108	0.000000	1.000000	-0.000004
1.000000	0.475000	0.000000	21	10	0	0.000000	0.000000	0.000000	-0.000006	0.000000	1.000000	0.000000
0.000000	0.525000	0.000000	0	11	0	0.000000	0.000000	0.000000	0.999994	0.000000	1.000000	0.000000
0.025000	0.525000	0.000000	1	11	0	0.000000	0.000000	0.000000	0.792480	0.000000	1.000000	-0.000006
0.075000	0.525000	0.000000	2	11	0	0.000000	0.000000	0.000000	0.482307	0.000000	1.000000	-0.000006
0.125000	0.525000	0.000000	3	11	0	0.000000	0.000000	0.000000	0.316941	0.000000	1.000000	-0.000006
0.175000	0.525000	0.000000	4	11	0	0.000000	0.000000	0.000000	0.238636	0.000000	1.000000	-0.000005
0.225000	0.525000	0.000000	5	11	0	0.000000	0.000000	0.000000	0.201258	0.000000	1.000000	-0.000005
0.275000	0.525000	0.000000	6	11	0	0.000000	0.000000	0.000000	0.181731	0.000000	1.000000	-0.000005
0.325000	0.525000	0.000000	7	11	0	0.000000	0.000000	0.000000	0.169828	0.000000	1.000000	-0.000005
0.375000	0.525000	0.000000	8	11	0	0.000000	0.000000	0.000000	0.161113	0.000000	1.000000	-0.000005
0.425000	0.525000	0.000000	9	11	0	0.000000	0.000000	0.000000	0.153613	0.000000	1.000000	-0.000005
0.475000	0.525000	0.000000	10	11	0	0.000000	0.000000	0.000000	0.146371	0.000000	1.000000	-0.000005
0.525000	0.525000	0.000000	11	11	0	0.000000	0.000000	0.000000	0.138910	0.000000	1.000000	-0.000005
0.575000	0.525000	0.000000	12	11	0	0.000000	0.000000	0.000000	0.130953	0.000000	1.000000	-0.000005
0.625000	0.525000	0.000000	13	11	0	0.000000	0.000000	0.000000	0.122299	0.000000	1.000000	-0.000005
0.675000	0.525000	0.000000	14	11	0	0.000000	0.000000	0.000000	0.112759	0.000000	1.000000	-0.000005
0.725000	0.525000	0.000000	15	11	0	0.000000	0.000000	0.000000	0.102105	0.000000	1.000000	-0.000004
0.775000	0.525000	0.000000	16	11	0	0.000000	0.000000	0.000000	0.089964	0.000000	1.000000	-0.000004
0.825000	0.525000	0.000000	17	11	0	0.000000	0.000000	0.000000	0.075670	0.000000	1.000000	-0.000004
0.875000	0.525000	0.000000	18	11	0	0.000000	0.000000	0.000000	0.058554	0.000000	1.000000	-0.000004
0.925000	0.525000	0.000000	19	11	0	0.000000	0.000000	0.000000	0.038061	0.000000	1.000000	-0.000004
0.975000	0.525000	0.000000	20	11	0	0.000000	0.000000	0.000000	0.014108	0.000000	1.000000	-0.000004
1.000000	0.525000	0.000000	21	11	0	0.000000	0.000000	0.000000	-0.000006	0.000000	1.000000	0.000000
0.000000	0.575000	0.000000	0	12	0	0.000000	0.000000	0.000000	0.999994	0.000000	1.000000	0.000000
0.025000	0.575000	0.000000	1	12	0	0.000000	0.000000	0.000000	0.792416	0.000000	1.000000	-0.000006
0.075000	0.575000	0.000000	2	12	0	0.000000	0.000000	0.000000	0.482229	0.000000	1.000000	-0.000006
0.125000	0.575000	0.000000	3	12	0	0.000000	0.000000	0.000000	0.316945	0.000000	1.000000	-0.000006
0.175000	0.575000	0.000000	4	12	0	0.000000	0.000000	0.000000	0.238729	0.000000	1.000000	-0.000005
0.225000	0.575000	0.000000	5	12	0	0.000000	0.000000	0.000000	0.201412	0.000000	1.000000	-0.000005
0.275000	0.575000	0.000000	6	12	0	0.000000	0.000000	0.000000	0.181921	0.000000	1.000000	-0.000005
0.325000	0.575000	0.000000	7	12	0	0.000000	0.000000	0.000000	0.170039	0.000000	1.000000	-0.000005
0.375000	0.575000	0.000000	8	12	0	0.000000	0.000000	0.000000	0.161339	0.000000	1.000000	-0.000005
0.425000	0.575000	0.000000	9	12	0	0.000000	0.000000	0.000000	0.153853	0.000000	1.000000	-0.000005
0.475000	0.575000	0.000000	10	12	0	0.000000	0.000000	0.000000	0.146628	0.000000	1.000000	-0.000005
0.525000	0.575000	0.000000	11	12	0	0.000000	0.000000	0.000000	0.139185	0.000000	1.000000	-0.000005
0.575000	0.575000	0.000000	12	12	0	0.000000	0.000000	0.000000	0.131245	0.000000	1.000000	-0.000005
0.625000	0.575000	0.000000	13	12	0	0.000000	0.000000	0.000000	0.122605	0.000000	1.000000	-0.000005
0.675000	0.575000	0.000000	14	12	0	0.000000	0.000000	0.000000	0.113070	0.000000	1.000000	-0.000005
0.725000	0.575000	0.000000	15	12	0	0.000000	0.000000	0.000000	0.102411	0.000000	1.000000	-0.000004
0.775000	0.575000	0.000000	16	12	0	0.000000	0.000000	0.000000	0.090244	0.000000	1.000000	-0.000004
0.825000	0.575000	0.000000	17	12	0	0.000000	0.000000	0.000000	0.075907	0.000000	1.000000	-0.000004
0.875000	0.575000	0.000000	18	12	0	0.000000	0.000000	0.000000	0.058733	0.000000	1.000000	-0.000004
0.925000	0.575000	0.000000	19	12	0	0.000000	0.000000	0.000000	0.038171	0.000000	1.000000	-0.000004
0.975000	0.575000	0.000000	20	12	0	0.000000	0.000000	0.000000	0.014146	0.000000	1.000000	-0.000004
1.000000	0.575000	0.000000	21	12	0	0.000000	0.000000	0.000000	-0.000006	0.000000	1.000000	0.000000
0.000000	0.625000	0.000000	0	13	0	0.000000	0.000000	0.000000	0.999994	0.000000	1.000000	0.000000
0.025000	0.625000	0.000000	1	13	0	0.000000	0.000000	0.000000	0.792348	0.000000	1.000000	-0.000006
0.075000	0.625000	0.000000	2	13	0	0.000000	0.000000	0.000000	0.482197	0.000000	1.000000	-0.000006
0.125000	0.625000	0.000000	3	13	0	0.000000	0.000000	0.000000	0.317074	0.000000	1.000000	-0.000006
0.175000	0.625000	0.000000	4	13	0	0.000000	0.000000	0.000000	0.239011	0.000000	1.000000	-0.000005
0.225000	0.625000	0.000000	5	13	0	0.000000	0.000000	0.000000	0.201789	0.000000	1.000000	-0.000005
0.275000	0.625000	0.000000	6	13	0	0.000000	0.000000	0.000000	0.182342	0.000000	1.000000	-0.000005
0.325000	0.625000	0.000000	7	13	0	0.000000	0.000000	0.000000	0.170476	0.000000	1.000000	-0.000005
0.375000	0.625000	0.000000	8	13	0	0.000000	0.000000	0.000000	0.161784	0.000000	1.000000	-0.000005
0.425000	0.625000	0.000000	9	13	0	0.000000	0.000000	0.000000	0.154306	0.000000	1.000000	-0.000005
0.475000	0.625000	0.000000	10	13	0	0.000000	0.000000	0.000000	0.147095	0.000000	1.000000	-0.000005
0.525000	0.625000	0.000000	11	13	0	0.000000	0.000000	0.000000	0.139674	0.000000	1.000000	-0.000005
0.575000	0.625000	0.000000	12	13	0	0.000000	0.000000	0.000000	0.131762	0.000000	1.000000	-0.000005
0.625000	0.625000	0.000000	13	13	0	0.000000	0.000000	0.000000	0.123146	0.000000	1.000000	-0.000005
0.675000	0.625000	0.000000	14	13	0	0.000000	0.000000	0.000000	0.113625	0.000000	1.000000	-0.000005
0.725000	0.625000	0.000000	15	13	0	0.000000	0.000000	0.000000	0.102963	0.000000	1.000000	-0.000004
0.775000	0.625000	0.000000	16	13	0	0.000000	0.000000	0.000000	0.090755	0.000000	1.000000	-0.000004
0.825000	0.625000	0.000000	17	13	0	0.000000	0.000000	0.000000	0.076341	0.000000	1.000000	-0.000004