TITLE = "dt=0.100000s, t=186.000000s, nu=0.000015, Lx=1.000000, Ly=1.000000, Lz=1.000000, Nx=22, Ny=22, Nz=22 "
VARIABLES =X, Y, Z, I, J, K, U, V, W, T, Xi, FlagP, P 
ZONE F=POINT, I=22, J=22, K=22
0.000000	0.000000	0.000000	0	0	0	0.000000	0.000000	0.000000	9.999994	0.000000	1.000000	0.000000
0.002500	0.000000	0.000000	1	0	0	0.000000	0.000000	0.000000	9.999994	0.000000	1.000000	0.000000
0.012500	0.000000	0.000000	2	0	0	0.000000	0.000000	0.000000	9.999994	0.000000	1.000000	0.000000
0.032500	0.000000	0.000000	3	0	0	0.000000	0.000000	0.000000	9.999994	0.000000	1.000000	0.000000
0.062500	0.000000	0.000000	4	0	0	0.000000	0.000000	0.000000	9.999994	0.000000	1.000000	0.000000
0.102500	0.000000	0.000000	5	0	0	0.000000	0.000000	0.000000	9.999994	0.000000	1.000000	0.000000
0.152500	0.000000	0.000000	6	0	0	0.000000	0.000000	0.000000	9.999994	0.000000	1.000000	0.000000
0.212500	0.000000	0.000000	7	0	0	0.000000	0.000000	0.000000	9.999994	0.000000	1.000000	0.000000
0.282500	0.000000	0.000000	8	0	0	0.000000	0.000000	0.000000	9.999994	0.000000	1.000000	0.000000
0.362500	0.000000	0.000000	9	0	0	0.000000	0.000000	0.000000	9.999994	0.000000	1.000000	0.000000
0.452500	0.000000	0.000000	10	0	0	0.000000	0.000000	0.000000	9.999994	0.000000	1.000000	0.000000
0.547500	0.000000	0.000000	11	0	0	0.000000	0.000000	0.000000	9.999994	0.000000	1.000000	0.000000
0.637500	0.000000	0.000000	12	0	0	0.000000	0.000000	0.000000	9.999994	0.000000	1.000000	0.000000
0.717500	0.000000	0.000000	13	0	0	0.000000	0.000000	0.000000	9.999994	0.000000	1.000000	0.000000
0.787500	0.000000	0.000000	14	0	0	0.000000	0.000000	0.000000	9.999994	0.000000	1.000000	0.000000
0.847500	0.000000	0.000000	15	0	0	0.000000	0.000000	0.000000	9.999994	0.000000	1.000000	0.000000
0.897500	0.000000	0.000000	16	0	0	0.000000	0.000000	0.000000	9.999994	0.000000	1.000000	0.000000
0.937500	0.000000	0.000000	17	0	0	0.000000	0.000000	0.000000	9.999994	0.000000	1.000000	0.000000
0.967500	0.000000	0.000000	18	0	0	0.000000	0.000000	0.000000	9.999994	0.000000	1.000000	0.000000
0.987500	0.000000	0.000000	19	0	0	0.000000	0.000000	0.000000	9.999994	0.000000	1.000000	0.000000
0.997500	0.000000	0.000000	20	0	0	0.000000	0.000000	0.000000	9.999994	0.000000	1.000000	0.000000
1.000000	0.000000	0.000000	21	0	0	0.000000	0.000000	0.000000	16.666660	0.000000	1.000000	0.000000
0.000000	0.002500	0.000000	0	1	0	0.000000	0.000000	0.000000	9.999994	0.000000	1.000000	0.000000
0.002500	0.002500	0.000000	1	1	0	0.000000	0.000000	0.000000	29.999994	0.084837	1.000000	13.369135
0.012500	0.002500	0.000000	2	1	0	0.000000	0.000000	0.000000	29.999994	0.000000	1.000000	13.368835
0.032500	0.002500	0.000000	3	1	0	0.000000	0.000000	0.000000	29.999994	0.000000	1.000000	13.366757
0.062500	0.002500	0.000000	4	1	0	0.000000	0.000000	0.000000	29.999994	0.000000	1.000000	13.360959
0.102500	0.002500	0.000000	5	1	0	0.000000	0.000000	0.000000	29.999994	0.000000	1.000000	13.356763
0.152500	0.002500	0.000000	6	1	0	0.000000	0.000000	0.000000	29.999994	0.000000	1.000000	13.353234
0.212500	0.002500	0.000000	7	1	0	0.000000	0.000000	0.000000	29.999994	0.000000	1.000000	13.347836
0.282500	0.002500	0.000000	8	1	0	0.000000	0.000000	0.000000	29.999994	0.000000	1.000000	13.345795
0.362500	0.002500	0.000000	9	1	0	0.000000	0.000000	0.000000	29.999994	0.000000	1.000000	13.345839
0.452500	0.002500	0.000000	10	1	0	0.000000	0.000000	0.000000	29.999994	0.000000	1.000000	13.350142
0.547500	0.002500	0.000000	11	1	0	0.000000	0.000000	0.000000	29.999994	0.000000	1.000000	13.361289
0.637500	0.002500	0.000000	12	1	0	0.000000	0.000000	0.000000	29.999994	0.000000	1.000000	13.378452
0.717500	0.002500	0.000000	13	1	0	0.000000	0.000000	0.000000	29.999994	0.000000	1.000000	13.398932
0.787500	0.002500	0.000000	14	1	0	0.000000	0.000000	0.000000	29.999994	0.000000	1.000000	13.421783
0.847500	0.002500	0.000000	15	1	0	0.000000	0.000000	0.000000	29.999994	0.000000	1.000000	13.445210
0.897500	0.002500	0.000000	16	1	0	0.000000	0.000000	0.000000	29.999994	0.000000	1.000000	13.465608
0.937500	0.002500	0.000000	17	1	0	0.000000	0.000000	0.000000	29.999994	0.000000	1.000000	13.478652
0.967500	0.002500	0.000000	18	1	0	0.000000	0.000000	0.000000	29.999994	0.000000	1.000000	13.482741
0.987500	0.002500	0.000000	19	1	0	0.000000	0.000000	0.000000	29.999994	0.000000	1.000000	13.481112
0.997500	0.002500	0.000000	20	1	0	0.000000	0.000000	0.000000	29.999994	0.000000	1.000000	13.481669
1.000000	0.002500	0.000000	21	1	0	0.000000	0.000000	0.000000	29.999994	0.000000	1.000000	0.000000
0.000000	0.012500	0.000000	0	2	0	0.000000	0.000000	0.000000	9.999994	0.000000	1.000000	0.000000
0.002500	0.012500	0.000000	1	2	0	0.000000	0.000000	0.000000	29.999994	0.092878	1.000000	13.368917
0.012500	0.012500	0.000000	2	2	0	0.000000	0.000000	0.000000	29.999994	0.000000	1.000000	13.368386
0.032500	0.012500	0.000000	3	2	0	0.000000	0.000000	0.000000	29.999994	0.000000	1.000000	13.365803
0.062500	0.012500	0.000000	4	2	0	0.000000	0.000000	0.000000	29.999994	0.000000	1.000000	13.359905
0.102500	0.012500	0.000000	5	2	0	0.000000	0.000000	0.000000	29.999994	0.000000	1.000000	13.355791
0.152500	0.012500	0.000000	6	2	0	0.000000	0.000000	0.000000	29.999994	0.000000	1.000000	13.351881
0.212500	0.012500	0.000000	7	2	0	0.000000	0.000000	0.000000	29.999994	0.000000	1.000000	13.346343
0.282500	0.012500	0.000000	8	2	0	0.000000	0.000000	0.000000	29.999994	0.000000	1.000000	13.344480
0.362500	0.012500	0.000000	9	2	0	0.000000	0.000000	0.000000	29.999994	0.000000	1.000000	13.344711
0.452500	0.012500	0.000000	10	2	0	0.000000	0.000000	0.000000	29.999994	0.000000	1.000000	13.349105
0.547500	0.012500	0.000000	11	2	0	0.000000	0.000000	0.000000	29.999994	0.000000	1.000000	13.360255
0.637500	0.012500	0.000000	12	2	0	0.000000	0.000000	0.000000	29.999994	0.000000	1.000000	13.377386
0.717500	0.012500	0.000000	13	2	0	0.000000	0.000000	0.000000	29.999994	0.000000	1.000000	13.397799
0.787500	0.012500	0.000000	14	2	0	0.000000	0.000000	0.000000	29.999994	0.000000	1.000000	13.420507
0.847500	0.012500	0.000000	15	2	0	0.000000	0.000000	0.000000	29.999994	0.000000	1.000000	13.443737
0.897500	0.012500	0.000000	16	2	0	0.000000	0.000000	0.000000	29.999994	0.000000	1.000000	13.463946
0.937500	0.012500	0.000000	17	2	0	0.000000	0.000000	0.000000	29.999994	0.000000	1.000000	13.476867
0.967500	0.012500	0.000000	18	2	0	0.000000	0.000000	0.000000	29.999994	0.000000	1.000000	13.480869
0.987500	0.012500	0.000000	19	2	0	0.000000	0.000000	0.000000	29.999994	0.000000	1.000000	13.479379
0.997500	0.012500	0.000000	20	2	0	0.000000	0.000000	0.000000	29.999994	0.000000	1.000000	13.480119
1.000000	0.012500	0.000000	21	2	0	0.000000	0.000000	0.000000	29.999994	0.000000	1.000000	0.000000
0.000000	0.032500	0.000000	0	3	0	0.000000	0.000000	0.000000	9.999994	0.000000	1.000000	0.000000
0.002500	0.032500	0.000000	1	3	0	0.000000	0.000000	0.000000	29.999994	0.096001	1.000000	13.367973
0.012500	0.032500	0.000000	2	3	0	0.000000	0.000000	0.000000	29.999994	0.000000	1.000000	13.367518
0.032500	0.032500	0.000000	3	3	0	0.000000	0.000000	0.000000	29.999994	0.000000	1.000000	13.363274
0.062500	0.032500	0.000000	4	3	0	0.000000	0.000000	0.000000	29.999994	0.000000	1.000000	13.356527
0.102500	0.032500	0.000000	5	3	0	0.000000	0.000000	0.000000	29.999994	0.000000	1.000000	13.354097
0.152500	0.032500	0.000000	6	3	0	0.000000	0.000000	0.000000	29.999994	0.000000	1.000000	13.353132
0.212500	0.032500	0.000000	7	3	0	0.000000	0.000000	0.000000	29.999994	0.000000	1.000000	13.348931
0.282500	0.032500	0.000000	8	3	0	0.000000	0.000000	0.000000	29.999994	0.000000	1.000000	13.347512
0.362500	0.032500	0.000000	9	3	0	0.000000	0.000000	0.000000	29.999994	0.000000	1.000000	13.347958
0.452500	0.032500	0.000000	10	3	0	0.000000	0.000000	0.000000	29.999994	0.000000	1.000000	13.352571
0.547500	0.032500	0.000000	11	3	0	0.000000	0.000000	0.000000	29.999994	0.000000	1.000000	13.363981
0.637500	0.032500	0.000000	12	3	0	0.000000	0.000000	0.000000	29.999994	0.000000	1.000000	13.381125
0.717500	0.032500	0.000000	13	3	0	0.000000	0.000000	0.000000	29.999994	0.000000	1.000000	13.401043
0.787500	0.032500	0.000000	14	3	0	0.000000	0.000000	0.000000	29.999994	0.000000	1.000000	13.422948
0.847500	0.032500	0.000000	15	3	0	0.000000	0.000000	0.000000	29.999994	0.000000	1.000000	13.445396
0.897500	0.032500	0.000000	16	3	0	0.000000	0.000000	0.000000	29.999994	0.000000	1.000000	13.465253
0.937500	0.032500	0.000000	17	3	0	0.000000	0.000000	0.000000	29.999994	0.000000	1.000000	13.478352
0.967500	0.032500	0.000000	18	3	0	0.000000	0.000000	0.000000	29.999994	0.000000	1.000000	13.482556
0.987500	0.032500	0.000000	19	3	0	0.000000	0.000000	0.000000	29.999994	0.000000	1.000000	13.480763
0.997500	0.032500	0.000000	20	3	0	0.000000	0.000000	0.000000	29.999994	0.000000	1.000000	13.481549
1.000000	0.032500	0.000000	21	3	0	0.000000	0.000000	0.000000	29.999994	0.000000	1.000000	0.000000
0.000000	0.062500	0.000000	0	4	0	0.000000	0.000000	0.000000	9.999994	0.000000	1.000000	0.000000
0.002500	0.062500	0.000000	1	4	0	0.000000	0.000000	0.000000	29.999994	0.094581	1.000000	13.365739
0.012500	0.062500	0.000000	2	4	0	0.000000	0.000000	0.000000	29.999994	0.000000	1.000000	13.365160
0.032500	0.062500	0.000000	3	4	0	0.000000	0.000000	0.000000	29.999994	0.000000	1.000000	13.360357
0.062500	0.062500	0.000000	4	4	0	0.000000	0.000000	0.000000	29.999994	0.000000	1.000000	13.357922
0.102500	0.062500	0.000000	5	4	0	0.000000	0.000000	0.000000	29.999994	0.000000	1.000000	13.356378
0.152500	0.062500	0.000000	6	4	0	0.000000	0.000000	0.000000	29.999994	0.000000	1.000000	13.351890
0.212500	0.062500	0.000000	7	4	0	0.000000	0.000000	0.000000	29.999994	0.000000	1.000000	13.349298
0.282500	0.062500	0.000000	8	4	0	0.000000	0.000000	0.000000	29.999994	0.000000	1.000000	13.348345
0.362500	0.062500	0.000000	9	4	0	0.000000	0.000000	0.000000	29.999994	0.000000	1.000000	13.348933
0.452500	0.062500	0.000000	10	4	0	0.000000	0.000000	0.000000	29.999994	0.000000	1.000000	13.353525
0.547500	0.062500	0.000000	11	4	0	0.000000	0.000000	0.000000	29.999994	0.000000	1.000000	13.364864
0.637500	0.062500	0.000000	12	4	0	0.000000	0.000000	0.000000	29.999994	0.000000	1.000000	13.381839
0.717500	0.062500	0.000000	13	4	0	0.000000	0.000000	0.000000	29.999994	0.000000	1.000000	13.401545
0.787500	0.062500	0.000000	14	4	0	0.000000	0.000000	0.000000	29.999994	0.000000	1.000000	13.423742
0.847500	0.062500	0.000000	15	4	0	0.000000	0.000000	0.000000	29.999994	0.000000	1.000000	13.447220
0.897500	0.062500	0.000000	16	4	0	0.000000	0.000000	0.000000	29.999994	0.000000	1.000000	13.469513
0.937500	0.062500	0.000000	17	4	0	0.000000	0.000000	0.000000	29.999994	0.000000	1.000000	13.486081
0.967500	0.062500	0.000000	18	4	0	0.000000	0.000000	0.000000	29.999994	0.000000	1.000000	13.492846
0.987500	0.062500	0.000000	19	4	0	0.000000	0.000000	0.000000	29.999994	0.000000	1.000000	13.491557
0.997500	0.062500	0.000000	20	4	0	0.000000	0.000000	0.000000	29.999994	0.000000	1.000000	13.491943
1.000000	0.062500	0.000000	21	4	0	0.000000	0.000000	0.000000	29.999994	0.000000	1.000000	0.000000
0.000000	0.102500	0.000000	0	5	0	0.000000	0.000000	0.000000	9.999994	0.000000	1.000000	0.000000
0.002500	0.102500	0.000000	1	5	0	0.000000	0.000000	0.000000	29.999994	0.092576	1.000000	13.366856
0.012500	0.102500	0.000000	2	5	0	0.000000	0.000000	0.000000	29.999994	0.000000	1.000000	13.365957
0.032500	0.102500	0.000000	3	5	0	0.000000	0.000000	0.000000	29.999994	0.000000	1.000000	13.360952
0.062500	0.102500	0.000000	4	5	0	0.000000	0.000000	0.000000	29.999994	0.000000	1.000000	13.359647
0.102500	0.102500	0.000000	5	5	0	0.000000	0.000000	0.000000	29.999994	0.000000	1.000000	13.358516
0.152500	0.102500	0.000000	6	5	0	0.000000	0.000000	0.000000	29.999994	0.000000	1.000000	13.352427
0.212500	0.102500	0.000000	7	5	0	0.000000	0.000000	0.000000	29.999994	0.000000	1.000000	13.349083
0.282500	0.102500	0.000000	8	5	0	0.000000	0.000000	0.000000	29.999994	0.000000	1.000000	13.347941
0.362500	0.102500	0.000000	9	5	0	0.000000	0.000000	0.000000	29.999994	0.000000	1.000000	13.348105
0.452500	0.102500	0.000000	10	5	0	0.000000	0.000000	0.000000	29.999994	0.000000	1.000000	13.351758
0.547500	0.102500	0.000000	11	5	0	0.000000	0.000000	0.000000	29.999994	0.000000	1.000000	13.361552
0.637500	0.102500	0.000000	12	5	0	0.000000	0.000000	0.000000	29.999994	0.000000	1.000000	13.376685
0.717500	0.102500	0.000000	13	5	0	0.000000	0.000000	0.000000	29.999994	0.000000	1.000000	13.394862
0.787500	0.102500	0.000000	14	5	0	0.000000	0.000000	0.000000	29.999994	0.000000	1.000000	13.416778
0.847500	0.102500	0.000000	15	5	0	0.000000	0.000000	0.000000	29.999994	0.000000	1.000000	13.441967
0.897500	0.102500	0.000000	16	5	0	0.000000	0.000000	0.000000	29.999994	0.000000	1.000000	13.467654
0.937500	0.102500	0.000000	17	5	0	0.000000	0.000000	0.000000	29.999994	0.000000	1.000000	13.488443
0.967500	0.102500	0.000000	18	5	0	0.000000	0.000000	0.000000	29.999994	0.000000	1.000000	13.498787
0.987500	0.102500	0.000000	19	5	0	0.000000	0.000000	0.000000	29.999994	0.000000	1.000000	13.499668
0.997500	0.102500	0.000000	20	5	0	0.000000	0.000000	0.000000	29.999994	0.000000	1.000000	13.499796
1.000000	0.102500	0.000000	21	5	0	0.000000	0.000000	0.000000	29.999994	0.000000	1.000000	0.000000
0.000000	0.152500	0.000000	0	6	0	0.000000	0.000000	0.000000	9.999994	0.000000	1.000000	0.000000
0.002500	0.152500	0.000000	1	6	0	0.000000	0.000000	0.000000	29.999994	0.091502	1.000000	13.376211
0.012500	0.152500	0.000000	2	6	0	0.000000	0.000000	0.000000	29.999994	0.000000	1.000000	13.374982
0.032500	0.152500	0.000000	3	6	0	0.000000	0.000000	0.000000	29.999994	0.000000	1.000000	13.367988
0.062500	0.152500	0.000000	4	6	0	0.000000	0.000000	0.000000	29.999994	0.000000	1.000000	13.364564
0.102500	0.152500	0.000000	5	6	0	0.000000	0.000000	0.000000	29.999994	0.000000	1.000000	13.363318
0.152500	0.152500	0.000000	6	6	0	0.000000	0.000000	0.000000	29.999994	0.000000	1.000000	13.355618
0.212500	0.152500	0.000000	7	6	0	0.000000	0.000000	0.000000	29.999994	0.000000	1.000000	13.349702
0.282500	0.152500	0.000000	8	6	0	0.000000	0.000000	0.000000	29.999994	0.000000	1.000000	13.347282
0.362500	0.152500	0.000000	9	6	0	0.000000	0.000000	0.000000	29.999994	0.000000	1.000000	13.346853
0.452500	0.152500	0.000000	10	6	0	0.000000	0.000000	0.000000	29.999994	0.000000	1.000000	13.349441
0.547500	0.152500	0.000000	11	6	0	0.000000	0.000000	0.000000	29.999994	0.000000	1.000000	13.357596
0.637500	0.152500	0.000000	12	6	0	0.000000	0.000000	0.000000	29.999994	0.000000	1.000000	13.371066
0.717500	0.152500	0.000000	13	6	0	0.000000	0.000000	0.000000	29.999994	0.000000	1.000000	13.388466
0.787500	0.152500	0.000000	14	6	0	0.000000	0.000000	0.000000	29.999994	0.000000	1.000000	13.411423
0.847500	0.152500	0.000000	15	6	0	0.000000	0.000000	0.000000	29.999994	0.000000	1.000000	13.439939
0.897500	0.152500	0.000000	16	6	0	0.000000	0.000000	0.000000	29.999994	0.000000	1.000000	13.469460
0.937500	0.152500	0.000000	17	6	0	0.000000	0.000000	0.000000	29.999994	0.000000	1.000000	13.492125
0.967500	0.152500	0.000000	18	6	0	0.000000	0.000000	0.000000	29.999994	0.000000	1.000000	13.502594
0.987500	0.152500	0.000000	19	6	0	0.000000	0.000000	0.000000	29.999994	0.000000	1.000000	13.503416
0.997500	0.152500	0.000000	20	6	0	0.000000	0.000000	0.000000	29.999994	0.000000	1.000000	13.503829
1.000000	0.152500	0.000000	21	6	0	0.000000	0.000000	0.000000	29.999994	0.000000	1.000000	0.000000
0.000000	0.212500	0.000000	0	7	0	0.000000	0.000000	0.000000	9.999994	0.000000	1.000000	0.000000
0.002500	0.212500	0.000000	1	7	0	0.000000	0.000000	0.000000	29.999994	0.090409	1.000000	13.391579
0.012500	0.212500	0.000000	2	7	0	0.000000	0.000000	0.000000	29.999994	0.000000	1.000000	13.390129
0.032500	0.212500	0.000000	3	7	0	0.000000	0.000000	0.000000	29.999994	0.000000	1.000000	13.381898
0.062500	0.212500	0.000000	4	7	0	0.000000	0.000000	0.000000	29.999994	0.000000	1.000000	13.374593
0.102500	0.212500	0.000000	5	7	0	0.000000	0.000000	0.000000	29.999994	0.000000	1.000000	13.371297
0.152500	0.212500	0.000000	6	7	0	0.000000	0.000000	0.000000	29.999994	0.000000	1.000000	13.361201
0.212500	0.212500	0.000000	7	7	0	0.000000	0.000000	0.000000	29.999994	0.000000	1.000000	13.352854
0.282500	0.212500	0.000000	8	7	0	0.000000	0.000000	0.000000	29.999994	0.000000	1.000000	13.348415
0.362500	0.212500	0.000000	9	7	0	0.000000	0.000000	0.000000	29.999994	0.000000	1.000000	13.346994
0.452500	0.212500	0.000000	10	7	0	0.000000	0.000000	0.000000	29.999994	0.000000	1.000000	13.348530
0.547500	0.212500	0.000000	11	7	0	0.000000	0.000000	0.000000	29.999994	0.000000	1.000000	13.355012
0.637500	0.212500	0.000000	12	7	0	0.000000	0.000000	0.000000	29.999994	0.000000	1.000000	13.367191
0.717500	0.212500	0.000000	13	7	0	0.000000	0.000000	0.000000	29.999994	0.000000	1.000000	13.385354
0.787500	0.212500	0.000000	14	7	0	0.000000	0.000000	0.000000	29.999994	0.000000	1.000000	13.411075
0.847500	0.212500	0.000000	15	7	0	0.000000	0.000000	0.000000	29.999994	0.000000	1.000000	13.442556
0.897500	0.212500	0.000000	16	7	0	0.000000	0.000000	0.000000	29.999994	0.000000	1.000000	13.472935
0.937500	0.212500	0.000000	17	7	0	0.000000	0.000000	0.000000	29.999994	0.000000	1.000000	13.494433
0.967500	0.212500	0.000000	18	7	0	0.000000	0.000000	0.000000	29.999994	0.000000	1.000000	13.503504
0.987500	0.212500	0.000000	19	7	0	0.000000	0.000000	0.000000	29.999994	0.000000	1.000000	13.503643
0.997500	0.212500	0.000000	20	7	0	0.000000	0.000000	0.000000	29.999994	0.000000	1.000000	13.504154
1.000000	0.212500	0.000000	21	7	0	0.000000	0.000000	0.000000	29.999994	0.000000	1.000000	0.000000
0.000000	0.282500	0.000000	0	8	0	0.000000	0.000000	0.000000	9.999994	0.000000	1.000000	0.000000
0.002500	0.282500	0.000000	1	8	0	0.000000	0.000000	0.000000	29.999994	0.089765	1.000000	13.401307
0.012500	0.282500	0.000000	2	8	0	0.000000	0.000000	0.000000	29.999994	0.000000	1.000000	13.399755
0.032500	0.282500	0.000000	3	8	0	0.000000	0.000000	0.000000	29.999994	0.000000	1.000000	13.391406
0.062500	0.282500	0.000000	4	8	0	0.000000	0.000000	0.000000	29.999994	0.000000	1.000000	13.383434
0.102500	0.282500	0.000000	5	8	0	0.000000	0.000000	0.000000	29.999994	0.000000	1.000000	13.378709
0.152500	0.282500	0.000000	6	8	0	0.000000	0.000000	0.000000	29.999994	0.000000	1.000000	13.366372
0.212500	0.282500	0.000000	7	8	0	0.000000	0.000000	0.000000	29.999994	0.000000	1.000000	13.356604
0.282500	0.282500	0.000000	8	8	0	0.000000	0.000000	0.000000	29.999994	0.000000	1.000000	13.350876
0.362500	0.282500	0.000000	9	8	0	0.000000	0.000000	0.000000	29.999994	0.000000	1.000000	13.348534
0.452500	0.282500	0.000000	10	8	0	0.000000	0.000000	0.000000	29.999994	0.000000	1.000000	13.349262
0.547500	0.282500	0.000000	11	8	0	0.000000	0.000000	0.000000	29.999994	0.000000	1.000000	13.354897
0.637500	0.282500	0.000000	12	8	0	0.000000	0.000000	0.000000	29.999994	0.000000	1.000000	13.367519
0.717500	0.282500	0.000000	13	8	0	0.000000	0.000000	0.000000	29.999994	0.000000	1.000000	13.388094
0.787500	0.282500	0.000000	14	8	0	0.000000	0.000000	0.000000	29.999994	0.000000	1.000000	13.416040
0.847500	0.282500	0.000000	15	8	0	0.000000	0.000000	0.000000	29.999994	0.000000	1.000000	13.446652
0.897500	0.282500	0.000000	16	8	0	0.000000	0.000000	0.000000	29.999994	0.000000	1.000000	13.473173
0.937500	0.282500	0.000000	17	8	0	0.000000	0.000000	0.000000	29.999994	0.000000	1.000000	13.490643
0.967500	0.282500	0.000000	18	8	0	0.000000	0.000000	0.000000	29.999994	0.000000	1.000000	13.497413
0.987500	0.282500	0.000000	19	8	0	0.000000	0.000000	0.000000	29.999994	0.000000	1.000000	13.496336
0.997500	0.282500	0.000000	20	8	0	0.000000	0.000000	0.000000	29.999994	0.000000	1.000000	13.496781
1.000000	0.282500	0.000000	21	8	0	0.000000	0.000000	0.000000	29.999994	0.000000	1.000000	0.000000
0.000000	0.362500	0.000000	0	9	0	0.000000	0.000000	0.000000	9.999994	0.000000	1.000000	0.000000
0.002500	0.362500	0.000000	1	9	0	0.000000	0.000000	0.000000	29.999994	0.091555	1.000000	13.393033
0.012500	0.362500	0.000000	2	9	0	0.000000	0.000000	0.000000	29.999994	0.000000	1.000000	13.391856
0.032500	0.362500	0.000000	3	9	0	0.000000	0.000000	0.000000	29.999994	0.000000	1.000000	13.385876
0.062500	0.362500	0.000000	4	9	0	0.000000	0.000000	0.000000	29.999994	0.000000	1.000000	13.381992
0.102500	0.362500	0.000000	5	9	0	0.000000	0.000000	0.000000	29.999994	0.000000	1.000000	13.378509
0.152500	0.362500	0.000000	6	9	0	0.000000	0.000000	0.000000	29.999994	0.000000	1.000000	13.367151
0.212500	0.362500	0.000000	7	9	0	0.000000	0.000000	0.000000	29.999994	0.000000	1.000000	13.358529
0.282500	0.362500	0.000000	8	9	0	0.000000	0.000000	0.000000	29.999994	0.000000	1.000000	13.353575
0.362500	0.362500	0.000000	9	9	0	0.000000	0.000000	0.000000	29.999994	0.000000	1.000000	13.351665
0.452500	0.362500	0.000000	10	9	0	0.000000	0.000000	0.000000	29.999994	0.000000	1.000000	13.352345
0.547500	0.362500	0.000000	11	9	0	0.000000	0.000000	0.000000	29.999994	0.000000	1.000000	13.357742
0.637500	0.362500	0.000000	12	9	0	0.000000	0.000000	0.000000	29.999994	0.000000	1.000000	13.370109
0.717500	0.362500	0.000000	13	9	0	0.000000	0.000000	0.000000	29.999994	0.000000	1.000000	13.388986
0.787500	0.362500	0.000000	14	9	0	0.000000	0.000000	0.000000	29.999994	0.000000	1.000000	13.411789
0.847500	0.362500	0.000000	15	9	0	0.000000	0.000000	0.000000	29.999994	0.000000	1.000000	13.433863
0.897500	0.362500	0.000000	16	9	0	0.000000	0.000000	0.000000	29.999994	0.000000	1.000000	13.450715
0.937500	0.362500	0.000000	17	9	0	0.000000	0.000000	0.000000	29.999994	0.000000	1.000000	13.460085
0.967500	0.362500	0.000000	18	9	0	0.000000	0.000000	0.000000	29.999994	0.000000	1.000000	13.462289
0.987500	0.362500	0.000000	19	9	0	0.000000	0.000000	0.000000	29.999994	0.000000	1.000000	13.459638
0.997500	0.362500	0.000000	20	9	0	0.000000	0.000000	0.000000	29.999994	0.000000	1.000000	13.460164
1.000000	0.362500	0.000000	21	9	0	0.000000	0.000000	0.000000	29.999994	0.000000	1.000000	0.000000
0.000000	0.452500	0.000000	0	10	0	0.000000	0.000000	0.000000	9.999994	0.000000	1.000000	0.000000
0.002500	0.452500	0.000000	1	10	0	0.000000	0.000000	0.000000	29.999994	0.098034	1.000000	13.388216
0.012500	0.452500	0.000000	2	10	0	0.000000	0.000000	0.000000	29.999994	0.000000	1.000000	13.387726
0.032500	0.452500	0.000000	3	10	0	0.000000	0.000000	0.000000	29.999994	0.000000	1.000000	13.385489
0.062500	0.452500	0.000000	4	10	0	0.000000	0.000000	0.000000	29.999994	0.000000	1.000000	13.380674
0.102500	0.452500	0.000000	5	10	0	0.000000	0.000000	0.000000	29.999994	0.000000	1.000000	13.373915
0.152500	0.452500	0.000000	6	10	0	0.000000	0.000000	0.000000	29.999994	0.000000	1.000000	13.364090
0.212500	0.452500	0.000000	7	10	0	0.000000	0.000000	0.000000	29.999994	0.000000	1.000000	13.355905
0.282500	0.452500	0.000000	8	10	0	0.000000	0.000000	0.000000	29.999994	0.000000	1.000000	13.350073
0.362500	0.452500	0.000000	9	10	0	0.000000	0.000000	0.000000	29.999994	0.000000	1.000000	13.346375
0.452500	0.452500	0.000000	10	10	0	0.000000	0.000000	0.000000	29.999994	0.000000	1.000000	13.345029
0.547500	0.452500	0.000000	11	10	0	0.000000	0.000000	0.000000	29.999994	0.000000	1.000000	13.349075
0.637500	0.452500	0.000000	12	10	0	0.000000	0.000000	0.000000	29.999994	0.000000	1.000000	13.359854
0.717500	0.452500	0.000000	13	10	0	0.000000	0.000000	0.000000	29.999994	0.000000	1.000000	13.375885
0.787500	0.452500	0.000000	14	10	0	0.000000	0.000000	0.000000	29.999994	0.000000	1.000000	13.393929
0.847500	0.452500	0.000000	15	10	0	0.000000	0.000000	0.000000	29.999994	0.000000	1.000000	13.409631
0.897500	0.452500	0.000000	16	10	0	0.000000	0.000000	0.000000	29.999994	0.000000	1.000000	13.419666
0.937500	0.452500	0.000000	17	10	0	0.000000	0.000000	0.000000	29.999994	0.000000	1.000000	13.423329
0.967500	0.452500	0.000000	18	10	0	0.000000	0.000000	0.000000	29.999994	0.000000	1.000000	13.422475
0.987500	0.452500	0.000000	19	10	0	0.000000	0.000000	0.000000	29.999994	0.000000	1.000000	13.420028
0.997500	0.452500	0.000000	20	10	0	0.000000	0.000000	0.000000	29.999994	0.000000	1.000000	13.420596
1.000000	0.452500	0.000000	21	10	0	0.000000	0.000000	0.000000	29.999994	0.000000	1.000000	0.000000
0.000000	0.547500	0.000000	0	11	0	0.000000	0.000000	0.000000	9.999994	0.000000	1.000000	0.000000
0.002500	0.547500	0.000000	1	11	0	0.000000	0.000000	0.000000	29.999994	0.091708	1.000000	13.395581
0.012500	0.547500	0.000000	2	11	0	0.000000	0.000000	0.000000	29.999994	0.000000	1.000000	13.394361
0.032500	0.547500	0.000000	3	11	0	0.000000	0.000000	0.000000	29.999994	0.000000	1.000000	13.387950
0.062500	0.547500	0.000000	4	11	0	0.000000	0.000000	0.000000	29.999994	0.000000	1.000000	13.382905
0.102500	0.547500	0.000000	5	11	0	0.000000	0.000000	0.000000	29.999994	0.000000	1.000000	13.379652
0.152500	0.547500	0.000000	6	11	0	0.000000	0.000000	0.000000	29.999994	0.000000	1.000000	13.367863
0.212500	0.547500	0.000000	7	11	0	0.000000	0.000000	0.000000	29.999994	0.000000	1.000000	13.358454
0.282500	0.547500	0.000000	8	11	0	0.000000	0.000000	0.000000	29.999994	0.000000	1.000000	13.353230
0.362500	0.547500	0.000000	9	11	0	0.000000	0.000000	0.000000	29.999994	0.000000	1.000000	13.351315
0.452500	0.547500	0.000000	10	11	0	0.000000	0.000000	0.000000	29.999994	0.000000	1.000000	13.352051
0.547500	0.547500	0.000000	11	11	0	0.000000	0.000000	0.000000	29.999994	0.000000	1.000000	13.357590
0.637500	0.547500	0.000000	12	11	0	0.000000	0.000000	0.000000	29.999994	0.000000	1.000000	13.369966
0.717500	0.547500	0.000000	13	11	0	0.000000	0.000000	0.000000	29.999994	0.000000	1.000000	13.388621
0.787500	0.547500	0.000000	14	11	0	0.000000	0.000000	0.000000	29.999994	0.000000	1.000000	13.410620
0.847500	0.547500	0.000000	15	11	0	0.000000	0.000000	0.000000	29.999994	0.000000	1.000000	13.431110
0.897500	0.547500	0.000000	16	11	0	0.000000	0.000000	0.000000	29.999994	0.000000	1.000000	13.445642
0.937500	0.547500	0.000000	17	11	0	0.000000	0.000000	0.000000	29.999994	0.000000	1.000000	13.452450
0.967500	0.547500	0.000000	18	11	0	0.000000	0.000000	0.000000	29.999994	0.000000	1.000000	13.452788
0.987500	0.547500	0.000000	19	11	0	0.000000	0.000000	0.000000	29.999994	0.000000	1.000000	13.449419
0.997500	0.547500	0.000000	20	11	0	0.000000	0.000000	0.000000	29.999994	0.000000	1.000000	13.450111
1.000000	0.547500	0.000000	21	11	0	0.000000	0.000000	0.000000	29.999994	0.000000	1.000000	0.000000
0.000000	0.637500	0.000000	0	12	0	0.000000	0.000000	0.000000	9.999994	0.000000	1.000000	0.000000
0.002500	0.637500	0.000000	1	12	0	0.000000	0.000000	0.000000	29.999994	0.090574	1.000000	13.402786
0.012500	0.637500	0.000000	2	12	0	0.000000	0.000000	0.000000	29.999994	0.000000	1.000000	13.401381
0.032500	0.637500	0.000000	3	12	0	0.000000	0.000000	0.000000	29.999994	0.000000	1.000000	13.393874
0.062500	0.637500	0.000000	4	12	0	0.000000	0.000000	0.000000	29.999994	0.000000	1.000000	13.386963
0.102500	0.637500	0.000000	5	12	0	0.000000	0.000000	0.000000	29.999994	0.000000	1.000000	13.382730
0.152500	0.637500	0.000000	6	12	0	0.000000	0.000000	0.000000	29.999994	0.000000	1.000000	13.369713
0.212500	0.637500	0.000000	7	12	0	0.000000	0.000000	0.000000	29.999994	0.000000	1.000000	13.358534
0.282500	0.637500	0.000000	8	12	0	0.000000	0.000000	0.000000	29.999994	0.000000	1.000000	13.351604
0.362500	0.637500	0.000000	9	12	0	0.000000	0.000000	0.000000	29.999994	0.000000	1.000000	13.348659
0.452500	0.637500	0.000000	10	12	0	0.000000	0.000000	0.000000	29.999994	0.000000	1.000000	13.349390
0.547500	0.637500	0.000000	11	12	0	0.000000	0.000000	0.000000	29.999994	0.000000	1.000000	13.355486
0.637500	0.637500	0.000000	12	12	0	0.000000	0.000000	0.000000	29.999994	0.000000	1.000000	13.369342
0.717500	0.637500	0.000000	13	12	0	0.000000	0.000000	0.000000	29.999994	0.000000	1.000000	13.392141
0.787500	0.637500	0.000000	14	12	0	0.000000	0.000000	0.000000	29.999994	0.000000	1.000000	13.421807
0.847500	0.637500	0.000000	15	12	0	0.000000	0.000000	0.000000	29.999994	0.000000	1.000000	13.451759
0.897500	0.637500	0.000000	16	12	0	0.000000	0.000000	0.000000	29.999994	0.000000	1.000000	13.474840
0.937500	0.637500	0.000000	17	12	0	0.000000	0.000000	0.000000	29.999994	0.000000	1.000000	13.487702
0.967500	0.637500	0.000000	18	12	0	0.000000	0.000000	0.000000	29.999994	0.000000	1.000000	13.491095
0.987500	0.637500	0.000000	19	12	0	0.000000	0.000000	0.000000	29.999994	0.000000	1.000000	13.488371
0.997500	0.637500	0.000000	20	12	0	0.000000	0.000000	0.000000	29.999994	0.000000	1.000000	13.489115
1.000000	0.637500	0.000000	21	12	0	0.000000	0.000000	0.000000	29.999994	0.000000	1.000000	0.000000
0.000000	0.717500	0.000000	0	13	0	0.000000	0.000000	0.000000	9.999994	0.000000	1.000000	0.000000
0.002500	0.717500	0.000000	1	13	0	0.000000	0.000000	0.000000	29.999994	0.090302	1.000000	13.397079
0.012500	0.717500	0.000000	2	13	0	0.000000	0.000000	0.000000	29.999994	0.000000	1.000000	13.395662
0.032500	0.717500	0.000000	3	13	0	0.000000	0.000000	0.000000	29.999994	0.000000	1.000000	13.388150
0.062500	0.717500	0.000000	4	13	0	0.000000	0.000000	0.000000	29.999994	0.000000	1.000000	13.382546
0.102500	0.717500	0.000000	5	13	0	0.000000	0.000000	0.000000	29.999994	0.000000	1.000000	13.378780
0.152500	0.717500	0.000000	6	13	0	0.000000	0.000000	0.000000	29.999994	0.000000	1.000000	13.366756
0.212500	0.717500	0.000000	7	13	0	0.000000	0.000000	0.000000	29.999994	0.000000	1.000000	13.356395
0.282500	0.717500	0.000000	8	13	0	0.000000	0.000000	0.000000	29.999994	0.000000	1.000000	13.350311
0.362500	0.717500	0.000000	9	13	0	0.000000	0.000000	0.000000	29.999994	0.000000	1.000000	13.347983
0.452500	0.717500	0.000000	10	13	0	0.000000	0.000000	0.000000	29.999994	0.000000	1.000000	13.349324
0.547500	0.717500	0.000000	11	13	0	0.000000	0.000000	0.000000	29.999994	0.000000	1.000000	13.355220
0.637500	0.717500	0.000000	12	13	0	0.000000	0.000000	0.000000	29.999994	0.000000	1.000000	13.366944
0.717500	0.717500	0.000000	13	13	0	0.000000	0.000000	0.000000	29.999994	0.000000	1.000000	13.387218
0.787500	0.717500	0.000000	14	13	0	0.000000	0.000000	0.000000	29.999994	0.000000	1.000000	13.416843
0.847500	0.717500	0.000000	15	13	0	0.000000	0.000000	0.000000	29.999994	0.000000	1.000000	13.450460