TITLE = "dt=0.100000s, t=126.000000s, nu=0.000015, Lx=1.000000, Ly=1.000000, Lz=1.000000, Nx=12, Ny=12, Nz=12 "
VARIABLES =X, Y, Z, I, J, K, U, V, W, T, Xi, FlagP, P 
ZONE F=POINT, I=12, J=12, K=12
0.000000	0.000000	0.000000	0	0	0	0.000000	0.000000	0.000000	10.000000	0.000000	1.000000	0.000000
0.050000	0.000000	0.000000	1	0	0	0.000000	0.000000	0.000000	10.000000	0.000000	1.000000	0.000000
0.150000	0.000000	0.000000	2	0	0	0.000000	0.000000	0.000000	10.000000	0.000000	1.000000	0.000000
0.250000	0.000000	0.000000	3	0	0	0.000000	0.000000	0.000000	10.000000	0.000000	1.000000	0.000000
0.350000	0.000000	0.000000	4	0	0	0.000000	0.000000	0.000000	10.000000	0.000000	1.000000	0.000000
0.450000	0.000000	0.000000	5	0	0	0.000000	0.000000	0.000000	10.000000	0.000000	1.000000	0.000000
0.550000	0.000000	0.000000	6	0	0	0.000000	0.000000	0.000000	10.000000	0.000000	1.000000	0.000000
0.650000	0.000000	0.000000	7	0	0	0.000000	0.000000	0.000000	10.000000	0.000000	1.000000	0.000000
0.750000	0.000000	0.000000	8	0	0	0.000000	0.000000	0.000000	10.000000	0.000000	1.000000	0.000000
0.850000	0.000000	0.000000	9	0	0	0.000000	0.000000	0.000000	10.000000	0.000000	1.000000	0.000000
0.950000	0.000000	0.000000	10	0	0	0.000000	0.000000	0.000000	10.000000	0.000000	1.000000	0.000000
1.000000	0.000000	0.000000	11	0	0	0.000000	0.000000	0.000000	10.000000	0.000000	1.000000	0.000000
0.000000	0.050000	0.000000	0	1	0	0.000000	0.000000	0.000000	10.000000	0.000000	1.000000	0.000000
0.050000	0.050000	0.000000	1	1	0	0.000000	0.000000	0.000000	10.000000	0.099830	1.000000	6.423949
0.150000	0.050000	0.000000	2	1	0	0.000000	0.000000	0.000000	10.000000	0.000000	1.000000	6.423911
0.250000	0.050000	0.000000	3	1	0	0.000000	0.000000	0.000000	10.000000	0.000000	1.000000	6.423826
0.350000	0.050000	0.000000	4	1	0	0.000000	0.000000	0.000000	10.000000	0.000000	1.000000	6.423749
0.450000	0.050000	0.000000	5	1	0	0.000000	0.000000	0.000000	10.000000	0.000000	1.000000	6.423749
0.550000	0.050000	0.000000	6	1	0	0.000000	0.000000	0.000000	10.000000	0.000000	1.000000	6.423897
0.650000	0.050000	0.000000	7	1	0	0.000000	0.000000	0.000000	10.000000	0.000000	1.000000	6.424240
0.750000	0.050000	0.000000	8	1	0	0.000000	0.000000	0.000000	10.000000	0.000000	1.000000	6.424734
0.850000	0.050000	0.000000	9	1	0	0.000000	0.000000	0.000000	10.000000	0.000000	1.000000	6.425120
0.950000	0.050000	0.000000	10	1	0	0.000000	0.000000	0.000000	10.000000	0.000000	1.000000	6.425537
1.000000	0.050000	0.000000	11	1	0	0.000000	0.000000	0.000000	10.000000	0.000000	1.000000	0.000000
0.000000	0.150000	0.000000	0	2	0	0.000000	0.000000	0.000000	10.000000	0.000000	1.000000	0.000000
0.050000	0.150000	0.000000	1	2	0	0.000000	0.000000	0.000000	10.000000	0.099794	1.000000	6.423972
0.150000	0.150000	0.000000	2	2	0	0.000000	0.000000	0.000000	10.000000	0.000000	1.000000	6.423906
0.250000	0.150000	0.000000	3	2	0	0.000000	0.000000	0.000000	10.000000	0.000000	1.000000	6.423816
0.350000	0.150000	0.000000	4	2	0	0.000000	0.000000	0.000000	10.000000	0.000000	1.000000	6.423739
0.450000	0.150000	0.000000	5	2	0	0.000000	0.000000	0.000000	10.000000	0.000000	1.000000	6.423742
0.550000	0.150000	0.000000	6	2	0	0.000000	0.000000	0.000000	10.000000	0.000000	1.000000	6.423892
0.650000	0.150000	0.000000	7	2	0	0.000000	0.000000	0.000000	10.000000	0.000000	1.000000	6.424237
0.750000	0.150000	0.000000	8	2	0	0.000000	0.000000	0.000000	10.000000	0.000000	1.000000	6.424737
0.850000	0.150000	0.000000	9	2	0	0.000000	0.000000	0.000000	10.000000	0.000000	1.000000	6.425152
0.950000	0.150000	0.000000	10	2	0	0.000000	0.000000	0.000000	10.000000	0.000000	1.000000	6.425595
1.000000	0.150000	0.000000	11	2	0	0.000000	0.000000	0.000000	10.000000	0.000000	1.000000	0.000000
0.000000	0.250000	0.000000	0	3	0	0.000000	0.000000	0.000000	10.000000	0.000000	1.000000	0.000000
0.050000	0.250000	0.000000	1	3	0	0.000000	0.000000	0.000000	10.000000	0.099822	1.000000	6.423978
0.150000	0.250000	0.000000	2	3	0	0.000000	0.000000	0.000000	10.000000	0.000000	1.000000	6.423910
0.250000	0.250000	0.000000	3	3	0	0.000000	0.000000	0.000000	10.000000	0.000000	1.000000	6.423813
0.350000	0.250000	0.000000	4	3	0	0.000000	0.000000	0.000000	10.000000	0.000000	1.000000	6.423735
0.450000	0.250000	0.000000	5	3	0	0.000000	0.000000	0.000000	10.000000	0.000000	1.000000	6.423738
0.550000	0.250000	0.000000	6	3	0	0.000000	0.000000	0.000000	10.000000	0.000000	1.000000	6.423890
0.650000	0.250000	0.000000	7	3	0	0.000000	0.000000	0.000000	10.000000	0.000000	1.000000	6.424237
0.750000	0.250000	0.000000	8	3	0	0.000000	0.000000	0.000000	10.000000	0.000000	1.000000	6.424733
0.850000	0.250000	0.000000	9	3	0	0.000000	0.000000	0.000000	10.000000	0.000000	1.000000	6.425122
0.950000	0.250000	0.000000	10	3	0	0.000000	0.000000	0.000000	10.000000	0.000000	1.000000	6.425542
1.000000	0.250000	0.000000	11	3	0	0.000000	0.000000	0.000000	10.000000	0.000000	1.000000	0.000000
0.000000	0.350000	0.000000	0	4	0	0.000000	0.000000	0.000000	10.000000	0.000000	1.000000	0.000000
0.050000	0.350000	0.000000	1	4	0	0.000000	0.000000	0.000000	10.000000	0.099830	1.000000	6.423979
0.150000	0.350000	0.000000	2	4	0	0.000000	0.000000	0.000000	10.000000	0.000000	1.000000	6.423912
0.250000	0.350000	0.000000	3	4	0	0.000000	0.000000	0.000000	10.000000	0.000000	1.000000	6.423813
0.350000	0.350000	0.000000	4	4	0	0.000000	0.000000	0.000000	10.000000	0.000000	1.000000	6.423733
0.450000	0.350000	0.000000	5	4	0	0.000000	0.000000	0.000000	10.000000	0.000000	1.000000	6.423736
0.550000	0.350000	0.000000	6	4	0	0.000000	0.000000	0.000000	10.000000	0.000000	1.000000	6.423889
0.650000	0.350000	0.000000	7	4	0	0.000000	0.000000	0.000000	10.000000	0.000000	1.000000	6.424242
0.750000	0.350000	0.000000	8	4	0	0.000000	0.000000	0.000000	10.000000	0.000000	1.000000	6.424753
0.850000	0.350000	0.000000	9	4	0	0.000000	0.000000	0.000000	10.000000	0.000000	1.000000	6.425173
0.950000	0.350000	0.000000	10	4	0	0.000000	0.000000	0.000000	10.000000	0.000000	1.000000	6.425619
1.000000	0.350000	0.000000	11	4	0	0.000000	0.000000	0.000000	10.000000	0.000000	1.000000	0.000000
0.000000	0.450000	0.000000	0	5	0	0.000000	0.000000	0.000000	10.000000	0.000000	1.000000	0.000000
0.050000	0.450000	0.000000	1	5	0	0.000000	0.000000	0.000000	10.000000	0.099830	1.000000	6.423979
0.150000	0.450000	0.000000	2	5	0	0.000000	0.000000	0.000000	10.000000	0.000000	1.000000	6.423912
0.250000	0.450000	0.000000	3	5	0	0.000000	0.000000	0.000000	10.000000	0.000000	1.000000	6.423813
0.350000	0.450000	0.000000	4	5	0	0.000000	0.000000	0.000000	10.000000	0.000000	1.000000	6.423732
0.450000	0.450000	0.000000	5	5	0	0.000000	0.000000	0.000000	10.000000	0.000000	1.000000	6.423736
0.550000	0.450000	0.000000	6	5	0	0.000000	0.000000	0.000000	10.000000	0.000000	1.000000	6.423891
0.650000	0.450000	0.000000	7	5	0	0.000000	0.000000	0.000000	10.000000	0.000000	1.000000	6.424245
0.750000	0.450000	0.000000	8	5	0	0.000000	0.000000	0.000000	10.000000	0.000000	1.000000	6.424757
0.850000	0.450000	0.000000	9	5	0	0.000000	0.000000	0.000000	10.000000	0.000000	1.000000	6.425160
0.950000	0.450000	0.000000	10	5	0	0.000000	0.000000	0.000000	10.000000	0.000000	1.000000	6.425586
1.000000	0.450000	0.000000	11	5	0	0.000000	0.000000	0.000000	10.000000	0.000000	1.000000	0.000000
0.000000	0.550000	0.000000	0	6	0	0.000000	0.000000	0.000000	10.000000	0.000000	1.000000	0.000000
0.050000	0.550000	0.000000	1	6	0	0.000000	0.000000	0.000000	10.000000	0.099831	1.000000	6.423979
0.150000	0.550000	0.000000	2	6	0	0.000000	0.000000	0.000000	10.000000	0.000000	1.000000	6.423911
0.250000	0.550000	0.000000	3	6	0	0.000000	0.000000	0.000000	10.000000	0.000000	1.000000	6.423812
0.350000	0.550000	0.000000	4	6	0	0.000000	0.000000	0.000000	10.000000	0.000000	1.000000	6.423731
0.450000	0.550000	0.000000	5	6	0	0.000000	0.000000	0.000000	10.000000	0.000000	1.000000	6.423735
0.550000	0.550000	0.000000	6	6	0	0.000000	0.000000	0.000000	10.000000	0.000000	1.000000	6.423890
0.650000	0.550000	0.000000	7	6	0	0.000000	0.000000	0.000000	10.000000	0.000000	1.000000	6.424243
0.750000	0.550000	0.000000	8	6	0	0.000000	0.000000	0.000000	10.000000	0.000000	1.000000	6.424751
0.850000	0.550000	0.000000	9	6	0	0.000000	0.000000	0.000000	10.000000	0.000000	1.000000	6.425155
0.950000	0.550000	0.000000	10	6	0	0.000000	0.000000	0.000000	10.000000	0.000000	1.000000	6.425580
1.000000	0.550000	0.000000	11	6	0	0.000000	0.000000	0.000000	10.000000	0.000000	1.000000	0.000000
0.000000	0.650000	0.000000	0	7	0	0.000000	0.000000	0.000000	10.000000	0.000000	1.000000	0.000000
0.050000	0.650000	0.000000	1	7	0	0.000000	0.000000	0.000000	10.000000	0.099829	1.000000	6.423978
0.150000	0.650000	0.000000	2	7	0	0.000000	0.000000	0.000000	10.000000	0.000000	1.000000	6.423910
0.250000	0.650000	0.000000	3	7	0	0.000000	0.000000	0.000000	10.000000	0.000000	1.000000	6.423811
0.350000	0.650000	0.000000	4	7	0	0.000000	0.000000	0.000000	10.000000	0.000000	1.000000	6.423731
0.450000	0.650000	0.000000	5	7	0	0.000000	0.000000	0.000000	10.000000	0.000000	1.000000	6.423736
0.550000	0.650000	0.000000	6	7	0	0.000000	0.000000	0.000000	10.000000	0.000000	1.000000	6.423890
0.650000	0.650000	0.000000	7	7	0	0.000000	0.000000	0.000000	10.000000	0.000000	1.000000	6.424245
0.750000	0.650000	0.000000	8	7	0	0.000000	0.000000	0.000000	10.000000	0.000000	1.000000	6.424757
0.850000	0.650000	0.000000	9	7	0	0.000000	0.000000	0.000000	10.000000	0.000000	1.000000	6.425167
0.950000	0.650000	0.000000	10	7	0	0.000000	0.000000	0.000000	10.000000	0.000000	1.000000	6.425596
1.000000	0.650000	0.000000	11	7	0	0.000000	0.000000	0.000000	10.000000	0.000000	1.000000	0.000000
0.000000	0.750000	0.000000	0	8	0	0.000000	0.000000	0.000000	10.000000	0.000000	1.000000	0.000000
0.050000	0.750000	0.000000	1	8	0	0.000000	0.000000	0.000000	10.000000	0.099822	1.000000	6.423975
0.150000	0.750000	0.000000	2	8	0	0.000000	0.000000	0.000000	10.000000	0.000000	1.000000	6.423907
0.250000	0.750000	0.000000	3	8	0	0.000000	0.000000	0.000000	10.000000	0.000000	1.000000	6.423810
0.350000	0.750000	0.000000	4	8	0	0.000000	0.000000	0.000000	10.000000	0.000000	1.000000	6.423732
0.450000	0.750000	0.000000	5	8	0	0.000000	0.000000	0.000000	10.000000	0.000000	1.000000	6.423737
0.550000	0.750000	0.000000	6	8	0	0.000000	0.000000	0.000000	10.000000	0.000000	1.000000	6.423891
0.650000	0.750000	0.000000	7	8	0	0.000000	0.000000	0.000000	10.000000	0.000000	1.000000	6.424242
0.750000	0.750000	0.000000	8	8	0	0.000000	0.000000	0.000000	10.000000	0.000000	1.000000	6.424745
0.850000	0.750000	0.000000	9	8	0	0.000000	0.000000	0.000000	10.000000	0.000000	1.000000	6.425141
0.950000	0.750000	0.000000	10	8	0	0.000000	0.000000	0.000000	10.000000	0.000000	1.000000	6.425556
1.000000	0.750000	0.000000	11	8	0	0.000000	0.000000	0.000000	10.000000	0.000000	1.000000	0.000000
0.000000	0.850000	0.000000	0	9	0	0.000000	0.000000	0.000000	10.000000	0.000000	1.000000	0.000000
0.050000	0.850000	0.000000	1	9	0	0.000000	0.000000	0.000000	10.000000	0.099795	1.000000	6.423968
0.150000	0.850000	0.000000	2	9	0	0.000000	0.000000	0.000000	10.000000	0.000000	1.000000	6.423903
0.250000	0.850000	0.000000	3	9	0	0.000000	0.000000	0.000000	10.000000	0.000000	1.000000	6.423812
0.350000	0.850000	0.000000	4	9	0	0.000000	0.000000	0.000000	10.000000	0.000000	1.000000	6.423736
0.450000	0.850000	0.000000	5	9	0	0.000000	0.000000	0.000000	10.000000	0.000000	1.000000	6.423741
0.550000	0.850000	0.000000	6	9	0	0.000000	0.000000	0.000000	10.000000	0.000000	1.000000	6.423893
0.650000	0.850000	0.000000	7	9	0	0.000000	0.000000	0.000000	10.000000	0.000000	1.000000	6.424241
0.750000	0.850000	0.000000	8	9	0	0.000000	0.000000	0.000000	10.000000	0.000000	1.000000	6.424739
0.850000	0.850000	0.000000	9	9	0	0.000000	0.000000	0.000000	10.000000	0.000000	1.000000	6.425144
0.950000	0.850000	0.000000	10	9	0	0.000000	0.000000	0.000000	10.000000	0.000000	1.000000	6.425572
1.000000	0.850000	0.000000	11	9	0	0.000000	0.000000	0.000000	10.000000	0.000000	1.000000	0.000000
0.000000	0.950000	0.000000	0	10	0	0.000000	0.000000	0.000000	10.000000	0.000000	1.000000	0.000000
0.050000	0.950000	0.000000	1	10	0	0.000000	0.000000	0.000000	10.000000	0.099826	1.000000	6.423944
0.150000	0.950000	0.000000	2	10	0	0.000000	0.000000	0.000000	10.000000	0.000000	1.000000	6.423905
0.250000	0.950000	0.000000	3	10	0	0.000000	0.000000	0.000000	10.000000	0.000000	1.000000	6.423820
0.350000	0.950000	0.000000	4	10	0	0.000000	0.000000	0.000000	10.000000	0.000000	1.000000	6.423744
0.450000	0.950000	0.000000	5	10	0	0.000000	0.000000	0.000000	10.000000	0.000000	1.000000	6.423746
0.550000	0.950000	0.000000	6	10	0	0.000000	0.000000	0.000000	10.000000	0.000000	1.000000	6.423897
0.650000	0.950000	0.000000	7	10	0	0.000000	0.000000	0.000000	10.000000	0.000000	1.000000	6.424246
0.750000	0.950000	0.000000	8	10	0	0.000000	0.000000	0.000000	10.000000	0.000000	1.000000	6.424749
0.850000	0.950000	0.000000	9	10	0	0.000000	0.000000	0.000000	10.000000	0.000000	1.000000	6.425140
0.950000	0.950000	0.000000	10	10	0	0.000000	0.000000	0.000000	10.000000	0.000000	1.000000	6.425554
1.000000	0.950000	0.000000	11	10	0	0.000000	0.000000	0.000000	10.000000	0.000000	1.000000	0.000000
0.000000	1.000000	0.000000	0	11	0	0.000000	0.000000	0.000000	10.000000	0.000000	1.000000	0.000000
0.050000	1.000000	0.000000	1	11	0	0.000000	0.000000	0.000000	10.000000	0.000000	1.000000	0.000000
0.150000	1.000000	0.000000	2	11	0	0.000000	0.000000	0.000000	10.000000	0.000000	1.000000	0.000000
0.250000	1.000000	0.000000	3	11	0	0.000000	0.000000	0.000000	10.000000	0.000000	1.000000	0.000000
0.350000	1.000000	0.000000	4	11	0	0.000000	0.000000	0.000000	10.000000	0.000000	1.000000	0.000000
0.450000	1.000000	0.000000	5	11	0	0.000000	0.000000	0.000000	10.000000	0.000000	1.000000	0.000000
0.550000	1.000000	0.000000	6	11	0	0.000000	0.000000	0.000000	10.000000	0.000000	1.000000	0.000000
0.650000	1.000000	0.000000	7	11	0	0.000000	0.000000	0.000000	10.000000	0.000000	1.000000	0.000000
0.750000	1.000000	0.000000	8	11	0	0.000000	0.000000	0.000000	10.000000	0.000000	1.000000	0.000000
0.850000	1.000000	0.000000	9	11	0	0.000000	0.000000	0.000000	10.000000	0.000000	1.000000	0.000000
0.950000	1.000000	0.000000	10	11	0	0.000000	0.000000	0.000000	10.000000	0.000000	1.000000	0.000000
1.000000	1.000000	0.000000	11	11	0	0.000000	0.000000	0.000000	10.000000	0.000000	1.000000	0.000000
0.000000	0.000000	0.050000	0	0	1	0.000000	0.000000	0.000000	10.000000	0.000000	1.000000	0.000000
0.050000	0.000000	0.050000	1	0	1	0.000000	0.000000	0.000000	10.000000	0.099830	1.000000	6.423949
0.150000	0.000000	0.050000	2	0	1	0.000000	0.000000	0.000000	10.000000	0.000000	1.000000	6.423911
0.250000	0.000000	0.050000	3	0	1	0.000000	0.000000	0.000000	10.000000	0.000000	1.000000	6.423826
0.350000	0.000000	0.050000	4	0	1	0.000000	0.000000	0.000000	10.000000	0.000000	1.000000	6.423749
0.450000	0.000000	0.050000	5	0	1	0.000000	0.000000	0.000000	10.000000	0.000000	1.000000	6.423749
0.550000	0.000000	0.050000	6	0	1	0.000000	0.000000	0.000000	10.000000	0.000000	1.000000	6.423897
0.650000	0.000000	0.050000	7	0	1	0.000000	0.000000	0.000000	10.000000	0.000000	1.000000	6.424240
0.750000	0.000000	0.050000	8	0	1	0.000000	0.000000	0.000000	10.000000	0.000000	1.000000	6.424734
0.850000	0.000000	0.050000	9	0	1	0.000000	0.000000	0.000000	10.000000	0.000000	1.000000	6.425120
0.950000	0.000000	0.050000	10	0	1	0.000000	0.000000	0.000000	10.000000	0.000000	1.000000	6.425537
1.000000	0.000000	0.050000	11	0	1	0.000000	0.000000	0.000000	10.000000	0.000000	1.000000	0.000000
0.000000	0.050000	0.050000	0	1	1	0.000000	0.000000	0.000000	10.000000	0.099830	1.000000	6.423949
0.050000	0.050000	0.050000	1	1	1	-0.002749	-0.001573	0.004140	10.000000	0.099967	-1.000000	6.423949
0.150000	0.050000	0.050000	2	1	1	-0.010316	0.000322	0.004145	10.000000	0.049377	-1.000000	6.423911
0.250000	0.050000	0.050000	3	1	1	-0.019330	0.000239	0.003632	10.000000	0.055381	-1.000000	6.423826
0.350000	0.050000	0.050000	4	1	1	-0.026565	0.000008	0.002718	10.000000	0.058478	-1.000000	6.423749
0.450000	0.050000	0.050000	5	1	1	-0.031113	-0.000143	0.001338	10.000000	0.060680	-1.000000	6.423749
0.550000	0.050000	0.050000	6	1	1	-0.032171	-0.000240	-0.000525	10.000000	0.062557	-1.000000	6.423897
0.650000	0.050000	0.050000	7	1	1	-0.028470	-0.000355	-0.003209	10.000000	0.064339	-1.000000	6.424240
0.750000	0.050000	0.050000	8	1	1	-0.018269	-0.000543	-0.006722	10.000000	0.066079	-1.000000	6.424734
0.850000	0.050000	0.050000	9	1	1	-0.000862	-0.000941	-0.009823	10.000000	0.067662	-1.000000	6.425120
0.950000	0.050000	0.050000	10	1	1	0.046949	-0.001368	0.000869	10.000000	0.066690	-1.000000	6.425537
1.000000	0.050000	0.050000	11	1	1	0.084305	0.000000	0.000000	10.000000	0.066690	2.000000	6.425537
0.000000	0.150000	0.050000	0	2	1	0.000000	0.000000	0.000000	10.000000	0.099794	1.000000	6.423972
0.050000	0.150000	0.050000	1	2	1	-0.005523	-0.002228	0.004253	10.000000	0.099893	-1.000000	6.423972
0.150000	0.150000	0.050000	2	2	1	-0.015024	0.000288	0.003849	10.000000	0.064968	-1.000000	6.423906
0.250000	0.150000	0.050000	3	2	1	-0.022500	0.000371	0.003163	10.000000	0.068260	-1.000000	6.423816
0.350000	0.150000	0.050000	4	2	1	-0.028659	0.000106	0.002131	10.000000	0.070491	-1.000000	6.423739
0.450000	0.150000	0.050000	5	2	1	-0.032607	-0.000107	0.000668	10.000000	0.072104	-1.000000	6.423742
0.550000	0.150000	0.050000	6	2	1	-0.033300	-0.000249	-0.001266	10.000000	0.073509	-1.000000	6.423892
0.650000	0.150000	0.050000	7	2	1	-0.029422	-0.000378	-0.004055	10.000000	0.074886	-1.000000	6.424237
0.750000	0.150000	0.050000	8	2	1	-0.019393	-0.000553	-0.007716	10.000000	0.076398	-1.000000	6.424737
0.850000	0.150000	0.050000	9	2	1	-0.002843	-0.000886	-0.011231	10.000000	0.077933	-1.000000	6.425152
0.950000	0.150000	0.050000	10	2	1	0.044331	-0.000801	-0.002553	10.000000	0.077315	-1.000000	6.425595
1.000000	0.150000	0.050000	11	2	1	0.081699	0.000000	0.000000	10.000000	0.077315	2.000000	6.425595
0.000000	0.250000	0.050000	0	3	1	0.000000	0.000000	0.000000	10.000000	0.099822	1.000000	6.423978
0.050000	0.250000	0.050000	1	3	1	-0.004977	-0.000971	0.004314	10.000000	0.099914	-1.000000	6.423978
0.150000	0.250000	0.050000	2	3	1	-0.014313	-0.000174	0.004021	10.000000	0.066833	-1.000000	6.423910
0.250000	0.250000	0.050000	3	3	1	-0.022292	0.000066	0.003402	10.000000	0.069845	-1.000000	6.423813
0.350000	0.250000	0.050000	4	3	1	-0.028571	0.000018	0.002426	10.000000	0.071736	-1.000000	6.423735
0.450000	0.250000	0.050000	5	3	1	-0.032501	-0.000077	0.001011	10.000000	0.073193	-1.000000	6.423738
0.550000	0.250000	0.050000	6	3	1	-0.033182	-0.000144	-0.000876	10.000000	0.074512	-1.000000	6.423890
0.650000	0.250000	0.050000	7	3	1	-0.029271	-0.000187	-0.003590	10.000000	0.075821	-1.000000	6.424237
0.750000	0.250000	0.050000	8	3	1	-0.019103	-0.000207	-0.007073	10.000000	0.077245	-1.000000	6.424733
0.850000	0.250000	0.050000	9	3	1	-0.002449	-0.000088	-0.010008	10.000000	0.078677	-1.000000	6.425122
0.950000	0.250000	0.050000	10	3	1	0.044712	-0.000213	0.000772	10.000000	0.077803	-1.000000	6.425542
1.000000	0.250000	0.050000	11	3	1	0.082069	0.000000	0.000000	10.000000	0.077803	2.000000	6.425542
0.000000	0.350000	0.050000	0	4	1	0.000000	0.000000	0.000000	10.000000	0.099830	1.000000	6.423979
0.050000	0.350000	0.050000	1	4	1	-0.004862	-0.000423	0.004338	10.000000	0.099923	-1.000000	6.423979
0.150000	0.350000	0.050000	2	4	1	-0.014226	-0.000158	0.003941	10.000000	0.067015	-1.000000	6.423912
0.250000	0.350000	0.050000	3	4	1	-0.022455	-0.000035	0.003218	10.000000	0.070110	-1.000000	6.423813
0.350000	0.350000	0.050000	4	4	1	-0.028886	-0.000029	0.002169	10.000000	0.072010	-1.000000	6.423733
0.450000	0.350000	0.050000	5	4	1	-0.032879	-0.000051	0.000707	10.000000	0.073486	-1.000000	6.423736
0.550000	0.350000	0.050000	6	4	1	-0.033566	-0.000058	-0.001220	10.000000	0.074830	-1.000000	6.423889
0.650000	0.350000	0.050000	7	4	1	-0.029627	-0.000051	-0.004017	10.000000	0.076161	-1.000000	6.424242
0.750000	0.350000	0.050000	8	4	1	-0.019352	-0.000006	-0.007731	10.000000	0.077630	-1.000000	6.424753
0.850000	0.350000	0.050000	9	4	1	-0.002050	0.000294	-0.011340	10.000000	0.079145	-1.000000	6.425173
0.950000	0.350000	0.050000	10	4	1	0.045683	-0.000052	-0.002092	10.000000	0.078482	-1.000000	6.425619
1.000000	0.350000	0.050000	11	4	1	0.083053	0.000000	0.000000	10.000000	0.078482	2.000000	6.425619
0.000000	0.450000	0.050000	0	5	1	0.000000	0.000000	0.000000	10.000000	0.099830	1.000000	6.423979
0.050000	0.450000	0.050000	1	5	1	-0.004715	-0.000155	0.004343	10.000000	0.099922	-1.000000	6.423979
0.150000	0.450000	0.050000	2	5	1	-0.013922	-0.000045	0.004062	10.000000	0.066887	-1.000000	6.423912
0.250000	0.450000	0.050000	3	5	1	-0.022172	0.000001	0.003408	10.000000	0.070035	-1.000000	6.423813
0.350000	0.450000	0.050000	4	5	1	-0.028647	0.000007	0.002407	10.000000	0.071944	-1.000000	6.423732
0.450000	0.450000	0.050000	5	5	1	-0.032642	0.000004	0.000993	10.000000	0.073409	-1.000000	6.423736
0.550000	0.450000	0.050000	6	5	1	-0.033298	0.000009	-0.000883	10.000000	0.074732	-1.000000	6.423891
0.650000	0.450000	0.050000	7	5	1	-0.029254	0.000020	-0.003624	10.000000	0.076033	-1.000000	6.424245
0.750000	0.450000	0.050000	8	5	1	-0.018629	0.000031	-0.007256	10.000000	0.077439	-1.000000	6.424757
0.850000	0.450000	0.050000	9	5	1	-0.000358	0.000013	-0.010605	10.000000	0.078874	-1.000000	6.425160
0.950000	0.450000	0.050000	10	5	1	0.048072	0.000355	0.000528	10.000000	0.078060	-1.000000	6.425586
1.000000	0.450000	0.050000	11	5	1	0.085431	0.000000	0.000000	10.000000	0.078060	2.000000	6.425586
0.000000	0.550000	0.050000	0	6	1	0.000000	0.000000	0.000000	10.000000	0.099831	1.000000	6.423979
0.050000	0.550000	0.050000	1	6	1	-0.004817	0.000054	0.004351	10.000000	0.099924	-1.000000	6.423979
0.150000	0.550000	0.050000	2	6	1	-0.014154	0.000038	0.003984	10.000000	0.067021	-1.000000	6.423911
0.250000	0.550000	0.050000	3	6	1	-0.022419	0.000003	0.003272	10.000000	0.070146	-1.000000	6.423812
0.350000	0.550000	0.050000	4	6	1	-0.028872	-0.000017	0.002229	10.000000	0.072045	-1.000000	6.423731
0.450000	0.550000	0.050000	5	6	1	-0.032860	-0.000022	0.000780	10.000000	0.073512	-1.000000	6.423735
0.550000	0.550000	0.050000	6	6	1	-0.033529	-0.000025	-0.001129	10.000000	0.074842	-1.000000	6.423890
0.650000	0.550000	0.050000	7	6	1	-0.029565	-0.000037	-0.003905	10.000000	0.076160	-1.000000	6.424243
0.750000	0.550000	0.050000	8	6	1	-0.019304	-0.000061	-0.007573	10.000000	0.077614	-1.000000	6.424751
0.850000	0.550000	0.050000	9	6	1	-0.002548	-0.000125	-0.010967	10.000000	0.079124	-1.000000	6.425155
0.950000	0.550000	0.050000	10	6	1	0.044660	-0.000252	-0.001068	10.000000	0.078368	-1.000000	6.425580
1.000000	0.550000	0.050000	11	6	1	0.082020	0.000000	0.000000	10.000000	0.078368	2.000000	6.425580
0.000000	0.650000	0.050000	0	7	1	0.000000	0.000000	0.000000	10.000000	0.099829	1.000000	6.423978
0.050000	0.650000	0.050000	1	7	1	-0.004846	0.000392	0.004346	10.000000	0.099922	-1.000000	6.423978
0.150000	0.650000	0.050000	2	7	1	-0.014189	0.000194	0.003995	10.000000	0.067018	-1.000000	6.423910
0.250000	0.650000	0.050000	3	7	1	-0.022408	0.000076	0.003302	10.000000	0.070098	-1.000000	6.423811
0.350000	0.650000	0.050000	4	7	1	-0.028818	0.000064	0.002275	10.000000	0.071990	-1.000000	6.423731
0.450000	0.650000	0.050000	5	7	1	-0.032769	0.000094	0.000834	10.000000	0.073451	-1.000000	6.423736
0.550000	0.650000	0.050000	6	7	1	-0.033393	0.000122	-0.001080	10.000000	0.074771	-1.000000	6.423890
0.650000	0.650000	0.050000	7	7	1	-0.029347	0.000160	-0.003864	10.000000	0.076074	-1.000000	6.424245
0.750000	0.650000	0.050000	8	7	1	-0.018831	0.000240	-0.007554	10.000000	0.077510	-1.000000	6.424757
0.850000	0.650000	0.050000	9	7	1	-0.000858	0.000416	-0.011081	10.000000	0.079003	-1.000000	6.425167
0.950000	0.650000	0.050000	10	7	1	0.047370	0.000529	-0.000862	10.000000	0.078266	-1.000000	6.425596
1.000000	0.650000	0.050000	11	7	1	0.084731	0.000000	0.000000	10.000000	0.078266	2.000000	6.425596
0.000000	0.750000	0.050000	0	8	1	0.000000	0.000000	0.000000	10.000000	0.099822	1.000000	6.423975
0.050000	0.750000	0.050000	1	8	1	-0.005010	0.000954	0.004320	10.000000	0.099915	-1.000000	6.423975
0.150000	0.750000	0.050000	2	8	1	-0.014389	0.000190	0.003995	10.000000	0.066890	-1.000000	6.423907
0.250000	0.750000	0.050000	3	8	1	-0.022373	-0.000053	0.003343	10.000000	0.069872	-1.000000	6.423810
0.350000	0.750000	0.050000	4	8	1	-0.028638	-0.000032	0.002348	10.000000	0.071751	-1.000000	6.423732
0.450000	0.750000	0.050000	5	8	1	-0.032548	0.000046	0.000925	10.000000	0.073207	-1.000000	6.423737
0.550000	0.750000	0.050000	6	8	1	-0.033190	0.000110	-0.000977	10.000000	0.074525	-1.000000	6.423891
0.650000	0.750000	0.050000	7	8	1	-0.029198	0.000159	-0.003728	10.000000	0.075831	-1.000000	6.424242
0.750000	0.750000	0.050000	8	8	1	-0.018826	0.000184	-0.007305	10.000000	0.077267	-1.000000	6.424745
0.850000	0.750000	0.050000	9	8	1	-0.001461	-0.000011	-0.010519	10.000000	0.078738	-1.000000	6.425141
0.950000	0.750000	0.050000	10	8	1	0.046261	0.000114	0.000134	10.000000	0.077894	-1.000000	6.425556
1.000000	0.750000	0.050000	11	8	1	0.083616	0.000000	0.000000	10.000000	0.077894	2.000000	6.425556
0.000000	0.850000	0.050000	0	9	1	0.000000	0.000000	0.000000	10.000000	0.099795	1.000000	6.423968
0.050000	0.850000	0.050000	1	9	1	-0.005488	0.002242	0.004268	10.000000	0.099894	-1.000000	6.423968
0.150000	0.850000	0.050000	2	9	1	-0.014976	-0.000201	0.003895	10.000000	0.065059	-1.000000	6.423903
0.250000	0.850000	0.050000	3	9	1	-0.022473	-0.000322	0.003224	10.000000	0.068282	-1.000000	6.423812
0.350000	0.850000	0.050000	4	9	1	-0.028621	-0.000088	0.002209	10.000000	0.070458	-1.000000	6.423736
0.450000	0.850000	0.050000	5	9	1	-0.032567	0.000108	0.000764	10.000000	0.072047	-1.000000	6.423741
0.550000	0.850000	0.050000	6	9	1	-0.033276	0.000239	-0.001157	10.000000	0.073446	-1.000000	6.423893
0.650000	0.850000	0.050000	7	9	1	-0.029413	0.000360	-0.003928	10.000000	0.074821	-1.000000	6.424241
0.750000	0.850000	0.050000	8	9	1	-0.019426	0.000528	-0.007546	10.000000	0.076327	-1.000000	6.424739
0.850000	0.850000	0.050000	9	9	1	-0.003268	0.000841	-0.010934	10.000000	0.077844	-1.000000	6.425144
0.950000	0.850000	0.050000	10	9	1	0.043543	0.000754	-0.001906	10.000000	0.077153	-1.000000	6.425572
1.000000	0.850000	0.050000	11	9	1	0.080904	0.000000	0.000000	10.000000	0.077153	2.000000	6.425572
0.000000	0.950000	0.050000	0	10	1	0.000000	0.000000	0.000000	10.000000	0.099826	1.000000	6.423944
0.050000	0.950000	0.050000	1	10	1	-0.002866	0.001576	0.004151	10.000000	0.099963	-1.000000	6.423944
0.150000	0.950000	0.050000	2	10	1	-0.010522	-0.000263	0.004130	10.000000	0.049700	-1.000000	6.423905
0.250000	0.950000	0.050000	3	10	1	-0.019479	-0.000226	0.003575	10.000000	0.055539	-1.000000	6.423820
0.350000	0.950000	0.050000	4	10	1	-0.026669	-0.000020	0.002642	10.000000	0.058609	-1.000000	6.423744
0.450000	0.950000	0.050000	5	10	1	-0.031188	0.000120	0.001254	10.000000	0.060810	-1.000000	6.423746
0.550000	0.950000	0.050000	6	10	1	-0.032209	0.000208	-0.000628	10.000000	0.062704	-1.000000	6.423897
0.650000	0.950000	0.050000	7	10	1	-0.028428	0.000306	-0.003362	10.000000	0.064506	-1.000000	6.424246
0.750000	0.950000	0.050000	8	10	1	-0.018038	0.000485	-0.006958	10.000000	0.066299	-1.000000	6.424749
0.850000	0.950000	0.050000	9	10	1	-0.000080	0.000969	-0.010256	10.000000	0.067980	-1.000000	6.425140
0.950000	0.950000	0.050000	10	10	1	0.048150	0.001048	0.000535	10.000000	0.066960	-1.000000	6.425554
1.000000	0.950000	0.050000	11	10	1	0.085503	0.000000	0.000000	10.000000	0.066960	2.000000	6.425554
0.000000	1.000000	0.050000	0	11	1	0.000000	0.000000	0.000000	10.000000	0.000000	1.000000	0.000000
0.050000	1.000000	0.050000	1	11	1	0.000000	0.000000	0.000000	10.000000	0.099826	1.000000	6.423944
0.150000	1.000000	0.050000	2	11	1	0.000000	0.000000	0.000000	10.000000	0.000000	1.000000	6.423905
0.250000	1.000000	0.050000	3	11	1	0.000000	0.000000	0.000000	10.000000	0.000000	1.000000	6.423820
0.350000	1.000000	0.050000	4	11	1	0.000000	0.000000	0.000000	10.000000	0.000000	1.000000	6.423744
0.450000	1.000000	0.050000	5	11	1	0.000000	0.000000	0.000000	10.000000	0.000000	1.000000	6.423746
0.550000	1.000000	0.050000	6	11	1	0.000000	0.000000	0.000000	10.000000	0.000000	1.000000	6.423897
0.650000	1.000000	0.050000	7	11	1	0.000000	0.000000	0.000000	10.000000	0.000000	1.000000	6.424246
0.750000	1.000000	0.050000	8	11	1	0.000000	0.000000	0.000000	10.000000	0.000000	1.000000	6.424749
0.850000	1.000000	0.050000	9	11	1	0.000000	0.000000	0.000000	10.000000	0.000000	1.000000	6.425140
0.950000	1.000000	0.050000	10	11	1	0.000000	0.000000	0.000000	10.000000	0.000000	1.000000	6.425554
1.000000	1.000000	0.050000	11	11	1	0.000000	0.000000	0.000000	10.000000	0.000000	1.000000	0.000000
0.000000	0.000000	0.150000	0	0	2	0.000000	0.000000	0.000000	10.000000	0.000000	1.000000	0.000000
0.050000	0.000000	0.150000	1	0	2	0.000000	0.000000	0.000000	10.000000	0.099967	1.000000	6.423936
0.150000	0.000000	0.150000	2	0	2	0.000000	0.000000	0.000000	10.000000	0.000000	1.000000	6.423890
0.250000	0.000000	0.150000	3	0	2	0.000000	0.000000	0.000000	10.000000	0.000000	1.000000	6.423777
0.350000	0.000000	0.150000	4	0	2	0.000000	0.000000	0.000000	10.000000	0.000000	1.000000	6.423655
0.450000	0.000000	0.150000	5	0	2	0.000000	0.000000	0.000000	10.000000	0.000000	1.000000	6.423601
0.550000	0.000000	0.150000	6	0	2	0.000000	0.000000	0.000000	10.000000	0.000000	1.000000	6.423670
0.650000	0.000000	0.150000	7	0	2	0.000000	0.000000	0.000000	10.000000	0.000000	1.000000	6.423917
0.750000	0.000000	0.150000	8	0	2	0.000000	0.000000	0.000000	10.000000	0.000000	1.000000	6.424337
0.850000	0.000000	0.150000	9	0	2	0.000000	0.000000	0.000000	10.000000	0.000000	1.000000	6.424948
0.950000	0.000000	0.150000	10	0	2	0.000000	0.000000	0.000000	10.000000	0.000000	1.000000	6.425196
1.000000	0.000000	0.150000	11	0	2	0.000000	0.000000	0.000000	10.000000	0.000000	1.000000	0.000000
0.000000	0.050000	0.150000	0	1	2	0.000000	0.000000	0.000000	10.000000	0.099967	1.000000	6.423936
0.050000	0.050000	0.150000	1	1	2	-0.003026	-0.001490	0.012613	10.000000	0.099986	-1.000000	6.423936
0.150000	0.050000	0.150000	2	1	2	-0.011517	0.000634	0.012770	10.000000	0.052071	-1.000000	6.423890