TITLE = "dt=0.100000s, t=1860.000000s, nu=0.000016, Lx=1.000000, Ly=1.000000, Lz=1.000000, Nx=12, Ny=12, Nz=12 "
VARIABLES =X, Y, Z, I, J, K, U, V, W, T, Xi, FlagP, P 
ZONE F=POINT, I=12, J=12, K=12
0.000000	0.000000	0.000000	0	0	0	0.000000	0.000000	0.000000	16.666667	0.000000	1.000000	0.000000
0.050000	0.000000	0.000000	1	0	0	0.000000	0.000000	0.000000	30.000000	0.000000	1.000000	0.000000
0.150000	0.000000	0.000000	2	0	0	0.000000	0.000000	0.000000	30.000000	0.000000	1.000000	0.000000
0.250000	0.000000	0.000000	3	0	0	0.000000	0.000000	0.000000	30.000000	0.000000	1.000000	0.000000
0.350000	0.000000	0.000000	4	0	0	0.000000	0.000000	0.000000	30.000000	0.000000	1.000000	0.000000
0.450000	0.000000	0.000000	5	0	0	0.000000	0.000000	0.000000	30.000000	0.000000	1.000000	0.000000
0.550000	0.000000	0.000000	6	0	0	0.000000	0.000000	0.000000	30.000000	0.000000	1.000000	0.000000
0.650000	0.000000	0.000000	7	0	0	0.000000	0.000000	0.000000	30.000000	0.000000	1.000000	0.000000
0.750000	0.000000	0.000000	8	0	0	0.000000	0.000000	0.000000	30.000000	0.000000	1.000000	0.000000
0.850000	0.000000	0.000000	9	0	0	0.000000	0.000000	0.000000	30.000000	0.000000	1.000000	0.000000
0.950000	0.000000	0.000000	10	0	0	0.000000	0.000000	0.000000	30.000000	0.000000	1.000000	0.000000
1.000000	0.000000	0.000000	11	0	0	0.000000	0.000000	0.000000	36.666667	0.000000	1.000000	0.000000
0.000000	0.050000	0.000000	0	1	0	0.000000	0.000000	0.000000	10.000000	0.000000	1.000000	0.000000
0.050000	0.050000	0.000000	1	1	0	0.000000	0.000000	0.000000	25.128331	0.000000	1.000000	-0.091176
0.150000	0.050000	0.000000	2	1	0	0.000000	0.000000	0.000000	25.173025	0.000000	1.000000	-0.091559
0.250000	0.050000	0.000000	3	1	0	0.000000	0.000000	0.000000	25.180423	0.000000	1.000000	-0.092450
0.350000	0.050000	0.000000	4	1	0	0.000000	0.000000	0.000000	25.182492	0.000000	1.000000	-0.092633
0.450000	0.050000	0.000000	5	1	0	0.000000	0.000000	0.000000	25.184375	0.000000	1.000000	-0.092657
0.550000	0.050000	0.000000	6	1	0	0.000000	0.000000	0.000000	25.186184	0.000000	1.000000	-0.092628
0.650000	0.050000	0.000000	7	1	0	0.000000	0.000000	0.000000	25.187968	0.000000	1.000000	-0.092565
0.750000	0.050000	0.000000	8	1	0	0.000000	0.000000	0.000000	25.189793	0.000000	1.000000	-0.092470
0.850000	0.050000	0.000000	9	1	0	0.000000	0.000000	0.000000	25.193163	0.000000	1.000000	-0.092321
0.950000	0.050000	0.000000	10	1	0	0.000000	0.000000	0.000000	25.490476	0.000000	1.000000	-0.092083
1.000000	0.050000	0.000000	11	1	0	0.000000	0.000000	0.000000	40.000000	0.000000	1.000000	0.000000
0.000000	0.150000	0.000000	0	2	0	0.000000	0.000000	0.000000	10.000000	0.000000	1.000000	0.000000
0.050000	0.150000	0.000000	1	2	0	0.000000	0.000000	0.000000	25.098781	0.000000	1.000000	-0.091197
0.150000	0.150000	0.000000	2	2	0	0.000000	0.000000	0.000000	25.140117	0.000000	1.000000	-0.091574
0.250000	0.150000	0.000000	3	2	0	0.000000	0.000000	0.000000	25.148994	0.000000	1.000000	-0.092402
0.350000	0.150000	0.000000	4	2	0	0.000000	0.000000	0.000000	25.153732	0.000000	1.000000	-0.092585
0.450000	0.150000	0.000000	5	2	0	0.000000	0.000000	0.000000	25.157622	0.000000	1.000000	-0.092625
0.550000	0.150000	0.000000	6	2	0	0.000000	0.000000	0.000000	25.160721	0.000000	1.000000	-0.092608
0.650000	0.150000	0.000000	7	2	0	0.000000	0.000000	0.000000	25.163381	0.000000	1.000000	-0.092549
0.750000	0.150000	0.000000	8	2	0	0.000000	0.000000	0.000000	25.166086	0.000000	1.000000	-0.092460
0.850000	0.150000	0.000000	9	2	0	0.000000	0.000000	0.000000	25.170265	0.000000	1.000000	-0.092330
0.950000	0.150000	0.000000	10	2	0	0.000000	0.000000	0.000000	25.465429	0.000000	1.000000	-0.092113
1.000000	0.150000	0.000000	11	2	0	0.000000	0.000000	0.000000	40.000000	0.000000	1.000000	0.000000
0.000000	0.250000	0.000000	0	3	0	0.000000	0.000000	0.000000	10.000000	0.000000	1.000000	0.000000
0.050000	0.250000	0.000000	1	3	0	0.000000	0.000000	0.000000	25.096736	0.000000	1.000000	-0.091199
0.150000	0.250000	0.000000	2	3	0	0.000000	0.000000	0.000000	25.136843	0.000000	1.000000	-0.091577
0.250000	0.250000	0.000000	3	3	0	0.000000	0.000000	0.000000	25.145781	0.000000	1.000000	-0.092397
0.350000	0.250000	0.000000	4	3	0	0.000000	0.000000	0.000000	25.151029	0.000000	1.000000	-0.092582
0.450000	0.250000	0.000000	5	3	0	0.000000	0.000000	0.000000	25.155640	0.000000	1.000000	-0.092621
0.550000	0.250000	0.000000	6	3	0	0.000000	0.000000	0.000000	25.159817	0.000000	1.000000	-0.092603
0.650000	0.250000	0.000000	7	3	0	0.000000	0.000000	0.000000	25.163455	0.000000	1.000000	-0.092548
0.750000	0.250000	0.000000	8	3	0	0.000000	0.000000	0.000000	25.166157	0.000000	1.000000	-0.092457
0.850000	0.250000	0.000000	9	3	0	0.000000	0.000000	0.000000	25.170385	0.000000	1.000000	-0.092328
0.950000	0.250000	0.000000	10	3	0	0.000000	0.000000	0.000000	25.470634	0.000000	1.000000	-0.092117
1.000000	0.250000	0.000000	11	3	0	0.000000	0.000000	0.000000	40.000000	0.000000	1.000000	0.000000
0.000000	0.350000	0.000000	0	4	0	0.000000	0.000000	0.000000	10.000000	0.000000	1.000000	0.000000
0.050000	0.350000	0.000000	1	4	0	0.000000	0.000000	0.000000	25.121951	0.000000	1.000000	-0.091176
0.150000	0.350000	0.000000	2	4	0	0.000000	0.000000	0.000000	25.164094	0.000000	1.000000	-0.091560
0.250000	0.350000	0.000000	3	4	0	0.000000	0.000000	0.000000	25.171439	0.000000	1.000000	-0.092446
0.350000	0.350000	0.000000	4	4	0	0.000000	0.000000	0.000000	25.173300	0.000000	1.000000	-0.092634
0.450000	0.350000	0.000000	5	4	0	0.000000	0.000000	0.000000	25.175010	0.000000	1.000000	-0.092660
0.550000	0.350000	0.000000	6	4	0	0.000000	0.000000	0.000000	25.176713	0.000000	1.000000	-0.092632
0.650000	0.350000	0.000000	7	4	0	0.000000	0.000000	0.000000	25.178466	0.000000	1.000000	-0.092566
0.750000	0.350000	0.000000	8	4	0	0.000000	0.000000	0.000000	25.180329	0.000000	1.000000	-0.092459
0.850000	0.350000	0.000000	9	4	0	0.000000	0.000000	0.000000	25.183855	0.000000	1.000000	-0.092295
0.950000	0.350000	0.000000	10	4	0	0.000000	0.000000	0.000000	25.477681	0.000000	1.000000	-0.092034
1.000000	0.350000	0.000000	11	4	0	0.000000	0.000000	0.000000	40.000000	0.000000	1.000000	0.000000
0.000000	0.450000	0.000000	0	5	0	0.000000	0.000000	0.000000	10.000000	0.000000	1.000000	0.000000
0.050000	0.450000	0.000000	1	5	0	0.000000	0.000000	0.000000	25.132899	0.000000	1.000000	-0.091155
0.150000	0.450000	0.000000	2	5	0	0.000000	0.000000	0.000000	25.178123	0.000000	1.000000	-0.091527
0.250000	0.450000	0.000000	3	5	0	0.000000	0.000000	0.000000	25.186284	0.000000	1.000000	-0.092481
0.350000	0.450000	0.000000	4	5	0	0.000000	0.000000	0.000000	25.188475	0.000000	1.000000	-0.092679
0.450000	0.450000	0.000000	5	5	0	0.000000	0.000000	0.000000	25.190483	0.000000	1.000000	-0.092689
0.550000	0.450000	0.000000	6	5	0	0.000000	0.000000	0.000000	25.192402	0.000000	1.000000	-0.092646
0.650000	0.450000	0.000000	7	5	0	0.000000	0.000000	0.000000	25.194300	0.000000	1.000000	-0.092567
0.750000	0.450000	0.000000	8	5	0	0.000000	0.000000	0.000000	25.196264	0.000000	1.000000	-0.092445
0.850000	0.450000	0.000000	9	5	0	0.000000	0.000000	0.000000	25.199764	0.000000	1.000000	-0.092255
0.950000	0.450000	0.000000	10	5	0	0.000000	0.000000	0.000000	25.489515	0.000000	1.000000	-0.091964
1.000000	0.450000	0.000000	11	5	0	0.000000	0.000000	0.000000	40.000000	0.000000	1.000000	0.000000
0.000000	0.550000	0.000000	0	6	0	0.000000	0.000000	0.000000	10.000000	0.000000	1.000000	0.000000
0.050000	0.550000	0.000000	1	6	0	0.000000	0.000000	0.000000	25.132914	0.000000	1.000000	-0.091155
0.150000	0.550000	0.000000	2	6	0	0.000000	0.000000	0.000000	25.178140	0.000000	1.000000	-0.091527
0.250000	0.550000	0.000000	3	6	0	0.000000	0.000000	0.000000	25.186302	0.000000	1.000000	-0.092481
0.350000	0.550000	0.000000	4	6	0	0.000000	0.000000	0.000000	25.188492	0.000000	1.000000	-0.092679
0.450000	0.550000	0.000000	5	6	0	0.000000	0.000000	0.000000	25.190501	0.000000	1.000000	-0.092689
0.550000	0.550000	0.000000	6	6	0	0.000000	0.000000	0.000000	25.192421	0.000000	1.000000	-0.092646
0.650000	0.550000	0.000000	7	6	0	0.000000	0.000000	0.000000	25.194319	0.000000	1.000000	-0.092567
0.750000	0.550000	0.000000	8	6	0	0.000000	0.000000	0.000000	25.196284	0.000000	1.000000	-0.092445
0.850000	0.550000	0.000000	9	6	0	0.000000	0.000000	0.000000	25.199783	0.000000	1.000000	-0.092255
0.950000	0.550000	0.000000	10	6	0	0.000000	0.000000	0.000000	25.489532	0.000000	1.000000	-0.091964
1.000000	0.550000	0.000000	11	6	0	0.000000	0.000000	0.000000	40.000000	0.000000	1.000000	0.000000
0.000000	0.650000	0.000000	0	7	0	0.000000	0.000000	0.000000	10.000000	0.000000	1.000000	0.000000
0.050000	0.650000	0.000000	1	7	0	0.000000	0.000000	0.000000	25.121964	0.000000	1.000000	-0.091176
0.150000	0.650000	0.000000	2	7	0	0.000000	0.000000	0.000000	25.164108	0.000000	1.000000	-0.091560
0.250000	0.650000	0.000000	3	7	0	0.000000	0.000000	0.000000	25.171453	0.000000	1.000000	-0.092446
0.350000	0.650000	0.000000	4	7	0	0.000000	0.000000	0.000000	25.173314	0.000000	1.000000	-0.092634
0.450000	0.650000	0.000000	5	7	0	0.000000	0.000000	0.000000	25.175024	0.000000	1.000000	-0.092660
0.550000	0.650000	0.000000	6	7	0	0.000000	0.000000	0.000000	25.176726	0.000000	1.000000	-0.092632
0.650000	0.650000	0.000000	7	7	0	0.000000	0.000000	0.000000	25.178479	0.000000	1.000000	-0.092566
0.750000	0.650000	0.000000	8	7	0	0.000000	0.000000	0.000000	25.180340	0.000000	1.000000	-0.092459
0.850000	0.650000	0.000000	9	7	0	0.000000	0.000000	0.000000	25.183866	0.000000	1.000000	-0.092295
0.950000	0.650000	0.000000	10	7	0	0.000000	0.000000	0.000000	25.477691	0.000000	1.000000	-0.092034
1.000000	0.650000	0.000000	11	7	0	0.000000	0.000000	0.000000	40.000000	0.000000	1.000000	0.000000
0.000000	0.750000	0.000000	0	8	0	0.000000	0.000000	0.000000	10.000000	0.000000	1.000000	0.000000
0.050000	0.750000	0.000000	1	8	0	0.000000	0.000000	0.000000	25.096743	0.000000	1.000000	-0.091199
0.150000	0.750000	0.000000	2	8	0	0.000000	0.000000	0.000000	25.136851	0.000000	1.000000	-0.091577
0.250000	0.750000	0.000000	3	8	0	0.000000	0.000000	0.000000	25.145788	0.000000	1.000000	-0.092397
0.350000	0.750000	0.000000	4	8	0	0.000000	0.000000	0.000000	25.151036	0.000000	1.000000	-0.092582
0.450000	0.750000	0.000000	5	8	0	0.000000	0.000000	0.000000	25.155645	0.000000	1.000000	-0.092621
0.550000	0.750000	0.000000	6	8	0	0.000000	0.000000	0.000000	25.159821	0.000000	1.000000	-0.092603
0.650000	0.750000	0.000000	7	8	0	0.000000	0.000000	0.000000	25.163458	0.000000	1.000000	-0.092548
0.750000	0.750000	0.000000	8	8	0	0.000000	0.000000	0.000000	25.166160	0.000000	1.000000	-0.092457
0.850000	0.750000	0.000000	9	8	0	0.000000	0.000000	0.000000	25.170387	0.000000	1.000000	-0.092328
0.950000	0.750000	0.000000	10	8	0	0.000000	0.000000	0.000000	25.470634	0.000000	1.000000	-0.092117
1.000000	0.750000	0.000000	11	8	0	0.000000	0.000000	0.000000	40.000000	0.000000	1.000000	0.000000
0.000000	0.850000	0.000000	0	9	0	0.000000	0.000000	0.000000	10.000000	0.000000	1.000000	0.000000
0.050000	0.850000	0.000000	1	9	0	0.000000	0.000000	0.000000	25.098775	0.000000	1.000000	-0.091197
0.150000	0.850000	0.000000	2	9	0	0.000000	0.000000	0.000000	25.140110	0.000000	1.000000	-0.091574
0.250000	0.850000	0.000000	3	9	0	0.000000	0.000000	0.000000	25.148987	0.000000	1.000000	-0.092402
0.350000	0.850000	0.000000	4	9	0	0.000000	0.000000	0.000000	25.153726	0.000000	1.000000	-0.092585
0.450000	0.850000	0.000000	5	9	0	0.000000	0.000000	0.000000	25.157617	0.000000	1.000000	-0.092625
0.550000	0.850000	0.000000	6	9	0	0.000000	0.000000	0.000000	25.160717	0.000000	1.000000	-0.092608
0.650000	0.850000	0.000000	7	9	0	0.000000	0.000000	0.000000	25.163378	0.000000	1.000000	-0.092549
0.750000	0.850000	0.000000	8	9	0	0.000000	0.000000	0.000000	25.166082	0.000000	1.000000	-0.092460
0.850000	0.850000	0.000000	9	9	0	0.000000	0.000000	0.000000	25.170261	0.000000	1.000000	-0.092330
0.950000	0.850000	0.000000	10	9	0	0.000000	0.000000	0.000000	25.465431	0.000000	1.000000	-0.092113
1.000000	0.850000	0.000000	11	9	0	0.000000	0.000000	0.000000	40.000000	0.000000	1.000000	0.000000
0.000000	0.950000	0.000000	0	10	0	0.000000	0.000000	0.000000	10.000000	0.000000	1.000000	0.000000
0.050000	0.950000	0.000000	1	10	0	0.000000	0.000000	0.000000	25.128329	0.000000	1.000000	-0.091176
0.150000	0.950000	0.000000	2	10	0	0.000000	0.000000	0.000000	25.173022	0.000000	1.000000	-0.091559
0.250000	0.950000	0.000000	3	10	0	0.000000	0.000000	0.000000	25.180420	0.000000	1.000000	-0.092450
0.350000	0.950000	0.000000	4	10	0	0.000000	0.000000	0.000000	25.182488	0.000000	1.000000	-0.092633
0.450000	0.950000	0.000000	5	10	0	0.000000	0.000000	0.000000	25.184371	0.000000	1.000000	-0.092657
0.550000	0.950000	0.000000	6	10	0	0.000000	0.000000	0.000000	25.186180	0.000000	1.000000	-0.092628
0.650000	0.950000	0.000000	7	10	0	0.000000	0.000000	0.000000	25.187964	0.000000	1.000000	-0.092565
0.750000	0.950000	0.000000	8	10	0	0.000000	0.000000	0.000000	25.189789	0.000000	1.000000	-0.092469
0.850000	0.950000	0.000000	9	10	0	0.000000	0.000000	0.000000	25.193160	0.000000	1.000000	-0.092321
0.950000	0.950000	0.000000	10	10	0	0.000000	0.000000	0.000000	25.490473	0.000000	1.000000	-0.092083
1.000000	0.950000	0.000000	11	10	0	0.000000	0.000000	0.000000	40.000000	0.000000	1.000000	0.000000
0.000000	1.000000	0.000000	0	11	0	0.000000	0.000000	0.000000	16.666667	0.000000	1.000000	0.000000
0.050000	1.000000	0.000000	1	11	0	0.000000	0.000000	0.000000	30.000000	0.000000	1.000000	0.000000
0.150000	1.000000	0.000000	2	11	0	0.000000	0.000000	0.000000	30.000000	0.000000	1.000000	0.000000
0.250000	1.000000	0.000000	3	11	0	0.000000	0.000000	0.000000	30.000000	0.000000	1.000000	0.000000
0.350000	1.000000	0.000000	4	11	0	0.000000	0.000000	0.000000	30.000000	0.000000	1.000000	0.000000
0.450000	1.000000	0.000000	5	11	0	0.000000	0.000000	0.000000	30.000000	0.000000	1.000000	0.000000
0.550000	1.000000	0.000000	6	11	0	0.000000	0.000000	0.000000	30.000000	0.000000	1.000000	0.000000
0.650000	1.000000	0.000000	7	11	0	0.000000	0.000000	0.000000	30.000000	0.000000	1.000000	0.000000
0.750000	1.000000	0.000000	8	11	0	0.000000	0.000000	0.000000	30.000000	0.000000	1.000000	0.000000
0.850000	1.000000	0.000000	9	11	0	0.000000	0.000000	0.000000	30.000000	0.000000	1.000000	0.000000
0.950000	1.000000	0.000000	10	11	0	0.000000	0.000000	0.000000	30.000000	0.000000	1.000000	0.000000
1.000000	1.000000	0.000000	11	11	0	0.000000	0.000000	0.000000	36.666667	0.000000	1.000000	0.000000
0.000000	0.000000	0.050000	0	0	1	0.000000	0.000000	0.000000	10.000000	0.000000	1.000000	0.000000
0.050000	0.000000	0.050000	1	0	1	0.000000	0.000000	0.000000	25.128250	0.000000	1.000000	-0.091176
0.150000	0.000000	0.050000	2	0	1	0.000000	0.000000	0.000000	25.172943	0.000000	1.000000	-0.091559
0.250000	0.000000	0.050000	3	0	1	0.000000	0.000000	0.000000	25.180342	0.000000	1.000000	-0.092450
0.350000	0.000000	0.050000	4	0	1	0.000000	0.000000	0.000000	25.182410	0.000000	1.000000	-0.092633
0.450000	0.000000	0.050000	5	0	1	0.000000	0.000000	0.000000	25.184294	0.000000	1.000000	-0.092657
0.550000	0.000000	0.050000	6	0	1	0.000000	0.000000	0.000000	25.186102	0.000000	1.000000	-0.092628
0.650000	0.000000	0.050000	7	0	1	0.000000	0.000000	0.000000	25.187886	0.000000	1.000000	-0.092565
0.750000	0.000000	0.050000	8	0	1	0.000000	0.000000	0.000000	25.189711	0.000000	1.000000	-0.092470
0.850000	0.000000	0.050000	9	0	1	0.000000	0.000000	0.000000	25.193082	0.000000	1.000000	-0.092321
0.950000	0.000000	0.050000	10	0	1	0.000000	0.000000	0.000000	25.490394	0.000000	1.000000	-0.092083
1.000000	0.000000	0.050000	11	0	1	0.000000	0.000000	0.000000	40.000000	0.000000	1.000000	0.000000
0.000000	0.050000	0.050000	0	1	1	0.000000	0.000000	0.000000	10.000000	0.000000	1.000000	-0.091176
0.050000	0.050000	0.050000	1	1	1	0.022487	0.000193	-0.022680	25.128246	0.000000	-1.000000	-0.091176
0.150000	0.050000	0.050000	2	1	1	0.051178	0.000288	-0.006491	25.172939	0.000000	-1.000000	-0.091559
0.250000	0.050000	0.050000	3	1	1	0.058497	-0.000161	-0.000955	25.180338	0.000000	-1.000000	-0.092450
0.350000	0.050000	0.050000	4	1	1	0.059423	-0.000561	0.000750	25.182407	0.000000	-1.000000	-0.092633
0.450000	0.050000	0.050000	5	1	1	0.058607	-0.000808	0.001435	25.184290	0.000000	-1.000000	-0.092657
0.550000	0.050000	0.050000	6	1	1	0.057036	-0.000944	0.001889	25.186099	0.000000	-1.000000	-0.092628
0.650000	0.050000	0.050000	7	1	1	0.054818	-0.001038	0.002312	25.187883	0.000000	-1.000000	-0.092565
0.750000	0.050000	0.050000	8	1	1	0.051685	-0.001063	0.002923	25.189708	0.000000	-1.000000	-0.092470
0.850000	0.050000	0.050000	9	1	1	0.046658	-0.000909	0.004076	25.193078	0.000000	-1.000000	-0.092321
0.950000	0.050000	0.050000	10	1	1	0.021745	-0.000217	0.021962	25.490390	0.000000	-1.000000	-0.092083
1.000000	0.050000	0.050000	11	1	1	0.000000	0.000000	0.000000	40.000000	0.000000	1.000000	-0.092083
0.000000	0.150000	0.050000	0	2	1	0.000000	0.000000	0.000000	10.000000	0.000000	1.000000	-0.091197
0.050000	0.150000	0.050000	1	2	1	0.021985	0.000316	-0.021914	25.098696	0.000000	-1.000000	-0.091197
0.150000	0.150000	0.050000	2	2	1	0.049903	0.000430	-0.005788	25.140032	0.000000	-1.000000	-0.091574
0.250000	0.150000	0.050000	3	2	1	0.056800	-0.000082	-0.001201	25.148909	0.000000	-1.000000	-0.092402
0.350000	0.150000	0.050000	4	2	1	0.057650	-0.000513	-0.000497	25.153647	0.000000	-1.000000	-0.092585
0.450000	0.150000	0.050000	5	2	1	0.057019	-0.000793	-0.000305	25.157537	0.000000	-1.000000	-0.092625
0.550000	0.150000	0.050000	6	2	1	0.055693	-0.000967	-0.000114	25.160635	0.000000	-1.000000	-0.092608
0.650000	0.150000	0.050000	7	2	1	0.053791	-0.001063	0.000080	25.163296	0.000000	-1.000000	-0.092549
0.750000	0.150000	0.050000	8	2	1	0.051135	-0.001113	0.000549	25.166000	0.000000	-1.000000	-0.092460
0.850000	0.150000	0.050000	9	2	1	0.046812	-0.000975	0.001917	25.170179	0.000000	-1.000000	-0.092330
0.950000	0.150000	0.050000	10	2	1	0.022026	-0.000207	0.021800	25.465343	0.000000	-1.000000	-0.092113
1.000000	0.150000	0.050000	11	2	1	0.000000	0.000000	0.000000	40.000000	0.000000	1.000000	-0.092113
0.000000	0.250000	0.050000	0	3	1	0.000000	0.000000	0.000000	10.000000	0.000000	1.000000	-0.091199
0.050000	0.250000	0.050000	1	3	1	0.021978	0.000142	-0.021874	25.096650	0.000000	-1.000000	-0.091199
0.150000	0.250000	0.050000	2	3	1	0.049812	0.000056	-0.005628	25.136757	0.000000	-1.000000	-0.091577
0.250000	0.250000	0.050000	3	3	1	0.056596	0.000449	-0.001222	25.145696	0.000000	-1.000000	-0.092397
0.350000	0.250000	0.050000	4	3	1	0.057340	0.000850	-0.000570	25.150944	0.000000	-1.000000	-0.092582
0.450000	0.250000	0.050000	5	3	1	0.056522	0.001100	-0.000436	25.155554	0.000000	-1.000000	-0.092621
0.550000	0.250000	0.050000	6	3	1	0.054958	0.001241	-0.000357	25.159731	0.000000	-1.000000	-0.092603
0.650000	0.250000	0.050000	7	3	1	0.052911	0.001319	-0.000250	25.163370	0.000000	-1.000000	-0.092548
0.750000	0.250000	0.050000	8	3	1	0.050243	0.001228	0.000222	25.166072	0.000000	-1.000000	-0.092457
0.850000	0.250000	0.050000	9	3	1	0.045976	0.000793	0.001791	25.170299	0.000000	-1.000000	-0.092328
0.950000	0.250000	0.050000	10	3	1	0.021630	-0.000989	0.022638	25.470548	0.000000	-1.000000	-0.092117
1.000000	0.250000	0.050000	11	3	1	0.000000	0.000000	0.000000	40.000000	0.000000	1.000000	-0.092117
0.000000	0.350000	0.050000	0	4	1	0.000000	0.000000	0.000000	10.000000	0.000000	1.000000	-0.091176
0.050000	0.350000	0.050000	1	4	1	0.022529	0.000159	-0.022650	25.121866	0.000000	-1.000000	-0.091176
0.150000	0.350000	0.050000	2	4	1	0.051308	-0.000194	-0.006229	25.164008	0.000000	-1.000000	-0.091560
0.250000	0.350000	0.050000	3	4	1	0.058734	0.000589	-0.001023	25.171353	0.000000	-1.000000	-0.092446
0.350000	0.350000	0.050000	4	4	1	0.059856	0.001393	0.000265	25.173214	0.000000	-1.000000	-0.092634
0.450000	0.350000	0.050000	5	4	1	0.059287	0.001926	0.000759	25.174925	0.000000	-1.000000	-0.092660
0.550000	0.350000	0.050000	6	4	1	0.057904	0.002224	0.001172	25.176628	0.000000	-1.000000	-0.092632
0.650000	0.350000	0.050000	7	4	1	0.055773	0.002311	0.001638	25.178381	0.000000	-1.000000	-0.092566
0.750000	0.350000	0.050000	8	4	1	0.052629	0.002107	0.002331	25.180243	0.000000	-1.000000	-0.092459
0.850000	0.350000	0.050000	9	4	1	0.047529	0.001260	0.003676	25.183770	0.000000	-1.000000	-0.092295
0.950000	0.350000	0.050000	10	4	1	0.022155	-0.002033	0.022190	25.477596	0.000000	-1.000000	-0.092034
1.000000	0.350000	0.050000	11	4	1	0.000000	0.000000	0.000000	40.000000	0.000000	1.000000	-0.092034
0.000000	0.450000	0.050000	0	5	1	0.000000	0.000000	0.000000	10.000000	0.000000	1.000000	-0.091155
0.050000	0.450000	0.050000	1	5	1	0.022867	0.000140	-0.022727	25.132814	0.000000	-1.000000	-0.091155
0.150000	0.450000	0.050000	2	5	1	0.052391	-0.000108	-0.006765	25.178037	0.000000	-1.000000	-0.091527
0.250000	0.450000	0.050000	3	5	1	0.060368	0.000219	-0.001102	25.186199	0.000000	-1.000000	-0.092481
0.350000	0.450000	0.050000	4	5	1	0.061549	0.000591	0.000729	25.188389	0.000000	-1.000000	-0.092679
0.450000	0.450000	0.050000	5	5	1	0.060831	0.000841	0.001420	25.190398	0.000000	-1.000000	-0.092689
0.550000	0.450000	0.050000	6	5	1	0.059357	0.000961	0.001853	25.192317	0.000000	-1.000000	-0.092646
0.650000	0.450000	0.050000	7	5	1	0.057152	0.000968	0.002278	25.194215	0.000000	-1.000000	-0.092567
0.750000	0.450000	0.050000	8	5	1	0.053787	0.000830	0.002881	25.196179	0.000000	-1.000000	-0.092445
0.850000	0.450000	0.050000	9	5	1	0.048213	0.000401	0.003921	25.199679	0.000000	-1.000000	-0.092255
0.950000	0.450000	0.050000	10	5	1	0.022347	-0.001034	0.021313	25.489429	0.000000	-1.000000	-0.091964
1.000000	0.450000	0.050000	11	5	1	0.000000	0.000000	0.000000	40.000000	0.000000	1.000000	-0.091964
0.000000	0.550000	0.050000	0	6	1	0.000000	0.000000	0.000000	10.000000	0.000000	1.000000	-0.091155
0.050000	0.550000	0.050000	1	6	1	0.022867	-0.000140	-0.022727	25.132829	0.000000	-1.000000	-0.091155
0.150000	0.550000	0.050000	2	6	1	0.052391	0.000109	-0.006765	25.178055	0.000000	-1.000000	-0.091527
0.250000	0.550000	0.050000	3	6	1	0.060368	-0.000218	-0.001102	25.186217	0.000000	-1.000000	-0.092481
0.350000	0.550000	0.050000	4	6	1	0.061550	-0.000590	0.000729	25.188407	0.000000	-1.000000	-0.092679
0.450000	0.550000	0.050000	5	6	1	0.060832	-0.000840	0.001421	25.190416	0.000000	-1.000000	-0.092689
0.550000	0.550000	0.050000	6	6	1	0.059358	-0.000959	0.001854	25.192335	0.000000	-1.000000	-0.092646
0.650000	0.550000	0.050000	7	6	1	0.057152	-0.000966	0.002279	25.194234	0.000000	-1.000000	-0.092567
0.750000	0.550000	0.050000	8	6	1	0.053787	-0.000828	0.002883	25.196198	0.000000	-1.000000	-0.092445
0.850000	0.550000	0.050000	9	6	1	0.048214	-0.000401	0.003922	25.199698	0.000000	-1.000000	-0.092255
0.950000	0.550000	0.050000	10	6	1	0.022347	0.001033	0.021313	25.489447	0.000000	-1.000000	-0.091964
1.000000	0.550000	0.050000	11	6	1	0.000000	0.000000	0.000000	40.000000	0.000000	1.000000	-0.091964
0.000000	0.650000	0.050000	0	7	1	0.000000	0.000000	0.000000	10.000000	0.000000	1.000000	-0.091176
0.050000	0.650000	0.050000	1	7	1	0.022529	-0.000159	-0.022651	25.121879	0.000000	-1.000000	-0.091176
0.150000	0.650000	0.050000	2	7	1	0.051309	0.000195	-0.006229	25.164023	0.000000	-1.000000	-0.091560
0.250000	0.650000	0.050000	3	7	1	0.058736	-0.000589	-0.001023	25.171367	0.000000	-1.000000	-0.092446
0.350000	0.650000	0.050000	4	7	1	0.059858	-0.001393	0.000266	25.173228	0.000000	-1.000000	-0.092634
0.450000	0.650000	0.050000	5	7	1	0.059289	-0.001926	0.000760	25.174938	0.000000	-1.000000	-0.092660
0.550000	0.650000	0.050000	6	7	1	0.057905	-0.002224	0.001173	25.176641	0.000000	-1.000000	-0.092632
0.650000	0.650000	0.050000	7	7	1	0.055774	-0.002311	0.001639	25.178393	0.000000	-1.000000	-0.092566
0.750000	0.650000	0.050000	8	7	1	0.052630	-0.002107	0.002332	25.180255	0.000000	-1.000000	-0.092459
0.850000	0.650000	0.050000	9	7	1	0.047529	-0.001260	0.003677	25.183781	0.000000	-1.000000	-0.092295
0.950000	0.650000	0.050000	10	7	1	0.022155	0.002032	0.022190	25.477606	0.000000	-1.000000	-0.092034
1.000000	0.650000	0.050000	11	7	1	0.000000	0.000000	0.000000	40.000000	0.000000	1.000000	-0.092034
0.000000	0.750000	0.050000	0	8	1	0.000000	0.000000	0.000000	10.000000	0.000000	1.000000	-0.091199
0.050000	0.750000	0.050000	1	8	1	0.021979	-0.000141	-0.021874	25.096658	0.000000	-1.000000	-0.091199
0.150000	0.750000	0.050000	2	8	1	0.049813	-0.000055	-0.005628	25.136766	0.000000	-1.000000	-0.091577
0.250000	0.750000	0.050000	3	8	1	0.056597	-0.000449	-0.001221	25.145703	0.000000	-1.000000	-0.092397
0.350000	0.750000	0.050000	4	8	1	0.057341	-0.000850	-0.000570	25.150950	0.000000	-1.000000	-0.092582
0.450000	0.750000	0.050000	5	8	1	0.056523	-0.001101	-0.000435	25.155560	0.000000	-1.000000	-0.092621
0.550000	0.750000	0.050000	6	8	1	0.054960	-0.001242	-0.000357	25.159735	0.000000	-1.000000	-0.092603
0.650000	0.750000	0.050000	7	8	1	0.052912	-0.001320	-0.000249	25.163372	0.000000	-1.000000	-0.092548
0.750000	0.750000	0.050000	8	8	1	0.050243	-0.001229	0.000223	25.166074	0.000000	-1.000000	-0.092457
0.850000	0.750000	0.050000	9	8	1	0.045977	-0.000794	0.001792	25.170301	0.000000	-1.000000	-0.092328
0.950000	0.750000	0.050000	10	8	1	0.021630	0.000990	0.022638	25.470548	0.000000	-1.000000	-0.092117
1.000000	0.750000	0.050000	11	8	1	0.000000	0.000000	0.000000	40.000000	0.000000	1.000000	-0.092117
0.000000	0.850000	0.050000	0	9	1	0.000000	0.000000	0.000000	10.000000	0.000000	1.000000	-0.091197
0.050000	0.850000	0.050000	1	9	1	0.021985	-0.000316	-0.021914	25.098689	0.000000	-1.000000	-0.091197
0.150000	0.850000	0.050000	2	9	1	0.049903	-0.000429	-0.005788	25.140025	0.000000	-1.000000	-0.091574
0.250000	0.850000	0.050000	3	9	1	0.056800	0.000083	-0.001201	25.148902	0.000000	-1.000000	-0.092402
0.350000	0.850000	0.050000	4	9	1	0.057650	0.000513	-0.000497	25.153641	0.000000	-1.000000	-0.092585
0.450000	0.850000	0.050000	5	9	1	0.057019	0.000792	-0.000305	25.157532	0.000000	-1.000000	-0.092625
0.550000	0.850000	0.050000	6	9	1	0.055692	0.000966	-0.000115	25.160632	0.000000	-1.000000	-0.092608
0.650000	0.850000	0.050000	7	9	1	0.053790	0.001062	0.000080	25.163292	0.000000	-1.000000	-0.092549
0.750000	0.850000	0.050000	8	9	1	0.051133	0.001113	0.000549	25.165997	0.000000	-1.000000	-0.092460
0.850000	0.850000	0.050000	9	9	1	0.046811	0.000975	0.001916	25.170176	0.000000	-1.000000	-0.092330
0.950000	0.850000	0.050000	10	9	1	0.022026	0.000208	0.021800	25.465346	0.000000	-1.000000	-0.092113
1.000000	0.850000	0.050000	11	9	1	0.000000	0.000000	0.000000	40.000000	0.000000	1.000000	-0.092113
0.000000	0.950000	0.050000	0	10	1	0.000000	0.000000	0.000000	10.000000	0.000000	1.000000	-0.091176
0.050000	0.950000	0.050000	1	10	1	0.022487	-0.000193	-0.022680	25.128244	0.000000	-1.000000	-0.091176
0.150000	0.950000	0.050000	2	10	1	0.051178	-0.000288	-0.006491	25.172936	0.000000	-1.000000	-0.091559
0.250000	0.950000	0.050000	3	10	1	0.058497	0.000161	-0.000955	25.180334	0.000000	-1.000000	-0.092450
0.350000	0.950000	0.050000	4	10	1	0.059423	0.000561	0.000750	25.182403	0.000000	-1.000000	-0.092633
0.450000	0.950000	0.050000	5	10	1	0.058607	0.000808	0.001435	25.184286	0.000000	-1.000000	-0.092657
0.550000	0.950000	0.050000	6	10	1	0.057036	0.000944	0.001889	25.186095	0.000000	-1.000000	-0.092628
0.650000	0.950000	0.050000	7	10	1	0.054818	0.001038	0.002312	25.187879	0.000000	-1.000000	-0.092565
0.750000	0.950000	0.050000	8	10	1	0.051685	0.001063	0.002923	25.189704	0.000000	-1.000000	-0.092469
0.850000	0.950000	0.050000	9	10	1	0.046658	0.000909	0.004076	25.193074	0.000000	-1.000000	-0.092321
0.950000	0.950000	0.050000	10	10	1	0.021745	0.000217	0.021962	25.490388	0.000000	-1.000000	-0.092083
1.000000	0.950000	0.050000	11	10	1	0.000000	0.000000	0.000000	40.000000	0.000000	1.000000	-0.092083
0.000000	1.000000	0.050000	0	11	1	0.000000	0.000000	0.000000	10.000000	0.000000	1.000000	0.000000
0.050000	1.000000	0.050000	1	11	1	0.000000	0.000000	0.000000	25.128248	0.000000	1.000000	-0.091176
0.150000	1.000000	0.050000	2	11	1	0.000000	0.000000	0.000000	25.172940	0.000000	1.000000	-0.091559
0.250000	1.000000	0.050000	3	11	1	0.000000	0.000000	0.000000	25.180338	0.000000	1.000000	-0.092450
0.350000	1.000000	0.050000	4	11	1	0.000000	0.000000	0.000000	25.182407	0.000000	1.000000	-0.092633
0.450000	1.000000	0.050000	5	11	1	0.000000	0.000000	0.000000	25.184290	0.000000	1.000000	-0.092657
0.550000	1.000000	0.050000	6	11	1	0.000000	0.000000	0.000000	25.186098	0.000000	1.000000	-0.092628
0.650000	1.000000	0.050000	7	11	1	0.000000	0.000000	0.000000	25.187883	0.000000	1.000000	-0.092565
0.750000	1.000000	0.050000	8	11	1	0.000000	0.000000	0.000000	25.189708	0.000000	1.000000	-0.092469
0.850000	1.000000	0.050000	9	11	1	0.000000	0.000000	0.000000	25.193078	0.000000	1.000000	-0.092321
0.950000	1.000000	0.050000	10	11	1	0.000000	0.000000	0.000000	25.490391	0.000000	1.000000	-0.092083
1.000000	1.000000	0.050000	11	11	1	0.000000	0.000000	0.000000	40.000000	0.000000	1.000000	0.000000
0.000000	0.000000	0.150000	0	0	2	0.000000	0.000000	0.000000	10.000000	0.000000	1.000000	0.000000
0.050000	0.000000	0.150000	1	0	2	0.000000	0.000000	0.000000	25.417133	0.000000	1.000000	-0.073981
0.150000	0.000000	0.150000	2	0	2	0.000000	0.000000	0.000000	25.504681	0.000000	1.000000	-0.074450
0.250000	0.000000	0.150000	3	0	2	0.000000	0.000000	0.000000	25.481375	0.000000	1.000000	-0.074581
0.350000	0.000000	0.150000	4	0	2	0.000000	0.000000	0.000000	25.431910	0.000000	1.000000	-0.074477
0.450000	0.000000	0.150000	5	0	2	0.000000	0.000000	0.000000	25.399100	0.000000	1.000000	-0.074416
0.550000	0.000000	0.150000	6	0	2	0.000000	0.000000	0.000000	25.376984	0.000000	1.000000	-0.074361
0.650000	0.000000	0.150000	7	0	2	0.000000	0.000000	0.000000	25.359405	0.000000	1.000000	-0.074288
0.750000	0.000000	0.150000	8	0	2	0.000000	0.000000	0.000000	25.340786	0.000000	1.000000	-0.074199
0.850000	0.000000	0.150000	9	0	2	0.000000	0.000000	0.000000	25.314083	0.000000	1.000000	-0.074067
0.950000	0.000000	0.150000	10	0	2	0.000000	0.000000	0.000000	25.568531	0.000000	1.000000	-0.073301
1.000000	0.000000	0.150000	11	0	2	0.000000	0.000000	0.000000	40.000000	0.000000	1.000000	0.000000
0.000000	0.050000	0.150000	0	1	2	0.000000	0.000000	0.000000	10.000000	0.000000	1.000000	-0.073981