VARIABLES = "X"
 "Y"
 "Z"
 "I"
 "J"
 "K"
 "U"
 "V"
 "W"
 "T"
 "Xi"
 "FlagP"
 "P"
ZONE
DT=(DOUBLE,DOUBLE,DOUBLE,DOUBLE,DOUBLE,DOUBLE,DOUBLE,DOUBLE,DOUBLE,DOUBLE,DOUBLE,DOUBLE,DOUBLE)
                      0                     0.5                     0.5                       0                     5.5                     5.5                       0                       0                       0        10.0016593933105                       0                       1     0.00111799966543913 
     0.0101010101010101                     0.5                     0.5       0.202020199009866                     5.5                     5.5     0.00152646467599604                       0    -0.00326020196113924        10.9847347035967                       0       0.595959601980267     0.00111799966543913 
     0.0202020202020202                     0.5                     0.5       0.404040398019733                     5.5                     5.5     0.00305292935199208                       0    -0.00652040392227847        11.9678100138829                       0       0.191919203960534     0.00111799966543913 
     0.0303030303030303                     0.5                     0.5       0.606060597029599                     5.5                     5.5     0.00457939402798811                       0    -0.00978060588341771        12.9508853241691                       0      -0.212121194059199     0.00111799966543913 
     0.0404040404040404                     0.5                     0.5       0.808080796039466                     5.5                     5.5     0.00610585870398415                       0      -0.013040807844557        13.9339606344553                       0      -0.616161592078932     0.00111799966543913 
     0.0505050505050505                     0.5                     0.5        1.00505049733652                     5.5                     5.5      0.0076081542174235                       0     -0.0160541642178029        14.8678670555886                       0                      -1     0.00111803249450974 
     0.0606060606060606                     0.5                     0.5        1.10606059307853                     5.5                     5.5     0.00865123492919051                       0     -0.0143774471380595        14.8675631321228                       0                      -1      0.0011186890768906 
     0.0707070707070707                     0.5                     0.5        1.20707068882055                     5.5                     5.5     0.00969431564095752                       0      -0.012700730058316         14.867259208657                       0                      -1     0.00111934565927146 
     0.0808080808080808                     0.5                     0.5        1.30808078456256                     5.5                     5.5      0.0107373963527245                       0     -0.0110240129785726        14.8669552851913                       0                      -1     0.00112000224165232 
     0.0909090909090909                     0.5                     0.5        1.40909088030458                     5.5                     5.5      0.0117804770644915                       0    -0.00934729589882918        14.8666513617255                       0                      -1     0.00112065882403318 
      0.101010101010101                     0.5                     0.5        1.51010097604659                     5.5                     5.5      0.0128235577762585                       0    -0.00767057881908575        14.8663474382597                       0                      -1     0.00112131540641404 
      0.111111111111111                     0.5                     0.5         1.6111110717886                     5.5                     5.5      0.0138666384880255                       0    -0.00599386173934232        14.8660435147939                       0                      -1      0.0011219719887949 
      0.121212121212121                     0.5                     0.5        1.71212116753062                     5.5                     5.5      0.0149097191997926                       0    -0.00431714465959889        14.8657395913281                       0                      -1     0.00112262857117577 
      0.131313131313131                     0.5                     0.5        1.81313126327263                     5.5                     5.5      0.0159527999115596                       0    -0.00264042757985547        14.8654356678623                       0                      -1     0.00112328515355663 
      0.141414141414141                     0.5                     0.5        1.91414135901465                     5.5                     5.5      0.0169958806233266                       0   -0.000963710500112041        14.8651317443965                       0                      -1     0.00112394173593749 
      0.151515151515152                     0.5                     0.5        2.01515145644997                     5.5                     5.5      0.0179336739019575                       0    0.000560954168031573        14.8640459410619                       0                      -1     0.00112237862540466 
      0.161616161616162                     0.5                     0.5        2.11616156348074                     5.5                     5.5      0.0182748356315335                       0     0.00122398451602736        14.8585294646318                       0                      -1     0.00110823719681364 
      0.171717171717172                     0.5                     0.5        2.21717167051151                     5.5                     5.5      0.0186159973611095                       0     0.00188701486402314        14.8530129882016                       0                      -1     0.00109409576822261 
      0.181818181818182                     0.5                     0.5        2.31818177754229                     5.5                     5.5      0.0189571590906855                       0     0.00255004521201892        14.8474965117715                       0                      -1     0.00107995433963159 
      0.191919191919192                     0.5                     0.5        2.41919188457306                     5.5                     5.5      0.0192983208202615                       0      0.0032130755600147        14.8419800353413                       0                      -1     0.00106581291104056 
      0.202020202020202                     0.5                     0.5        2.52020199160383                     5.5                     5.5      0.0196394825498376                       0     0.00387610590801049        14.8364635589111                       0                      -1     0.00105167148244953 
      0.212121212121212                     0.5                     0.5         2.6212120986346                     5.5                     5.5      0.0199806442794136                       0     0.00453913625600627         14.830947082481                       0                      -1     0.00103753005385851 
      0.222222222222222                     0.5                     0.5        2.72222220566538                     5.5                     5.5      0.0203218060089896                       0     0.00520216660400205        14.8254306060508                       0                      -1     0.00102338862526748 
      0.232323232323232                     0.5                     0.5        2.82323231269615                     5.5                     5.5      0.0206629677385656                       0     0.00586519695199783        14.8199141296207                       0                      -1     0.00100924719667646 
      0.242424242424242                     0.5                     0.5        2.92424241972692                     5.5                     5.5      0.0210041294681416                       0     0.00652822729999362        14.8143976531905                       0                      -1     0.00099510576808543 
      0.252525252525253                     0.5                     0.5        3.02525252675769                     5.5                     5.5      0.0212694199413332                       0     0.00702387126355197        14.8090577389742                       0                      -1    0.000982845658243756 
      0.262626262626263                     0.5                     0.5        3.12626263378847                     5.5                     5.5      0.0213070966453715                       0     0.00701735607379803        14.8042475113994                       0                      -1     0.00097622950465014 
      0.272727272727273                     0.5                     0.5        3.22727274081924                     5.5                     5.5      0.0213447733494097                       0     0.00701084088404408        14.7994372838245                       0                      -1    0.000969613351056523 
      0.282828282828283                     0.5                     0.5        3.32828284785001                     5.5                     5.5       0.021382450053448                       0     0.00700432569429014        14.7946270562496                       0                      -1    0.000962997197462906 
      0.292929292929293                     0.5                     0.5        3.42929295488078                     5.5                     5.5      0.0214201267574863                       0      0.0069978105045362        14.7898168286748                       0                      -1    0.000956381043869289 
      0.303030303030303                     0.5                     0.5        3.53030306191156                     5.5                     5.5      0.0214578034615246                       0     0.00699129531478226        14.7850066010999                       0                      -1    0.000949764890275672 
      0.313131313131313                     0.5                     0.5        3.63131316894233                     5.5                     5.5      0.0214954801655628                       0     0.00698478012502832        14.7801963735251                       0                      -1    0.000943148736682055 
      0.323232323232323                     0.5                     0.5         3.7323232759731                     5.5                     5.5      0.0215331568696011                       0     0.00697826493527438        14.7753861459502                       0                      -1    0.000936532583088439 
      0.333333333333333                     0.5                     0.5        3.83333338300387                     5.5                     5.5      0.0215708335736394                       0     0.00697174974552043        14.7705759183754                       0                      -1    0.000929916429494822 
      0.343434343434343                     0.5                     0.5        3.93434349003465                     5.5                     5.5      0.0216085102776776                       0     0.00696523455576649        14.7657656908005                       0                      -1    0.000923300275901206 
      0.353535353535354                     0.5                     0.5        4.03535359706542                     5.5                     5.5      0.0216027374340263                       0     0.00686603993407743        14.7616804375918                       0                      -1    0.000918363426839482 
      0.363636363636364                     0.5                     0.5        4.13636370409619                     5.5                     5.5      0.0215162727825344                       0      0.0065947268138047        14.7589415618564                       0                      -1    0.000916545278104891 
      0.373737373737374                     0.5                     0.5        4.23737381112696                     5.5                     5.5      0.0214298081310424                       0     0.00632341369353198         14.756202686121                       0                      -1    0.000914727129370299 
      0.383838383838384                     0.5                     0.5        4.33838391815774                     5.5                     5.5      0.0213433434795505                       0     0.00605210057325925        14.7534638103856                       0                      -1    0.000912908980635708 
      0.393939393939394                     0.5                     0.5        4.43939402518851                     5.5                     5.5      0.0212568788280586                       0     0.00578078745298653        14.7507249346503                       0                      -1    0.000911090831901116 
      0.404040404040404                     0.5                     0.5        4.54040413221928                     5.5                     5.5      0.0211704141765667                       0      0.0055094743327138        14.7479860589149                       0                      -1    0.000909272683166524 
      0.414141414141414                     0.5                     0.5        4.64141423925005                     5.5                     5.5      0.0210839495250748                       0     0.00523816121244108        14.7452471831795                       0                      -1    0.000907454534431933 
      0.424242424242424                     0.5                     0.5        4.74242434628083                     5.5                     5.5      0.0209974848735829                       0     0.00496684809216835        14.7425083074441                       0                      -1    0.000905636385697341 
      0.434343434343434                     0.5                     0.5         4.8434344533116                     5.5                     5.5       0.020911020222091                       0     0.00469553497189563        14.7397694317088                       0                      -1    0.000903818236962749 
      0.444444444444444                     0.5                     0.5        4.94444456034237                     5.5                     5.5      0.0208245555705991                       0     0.00442422185162291        14.7370305559734                       0                      -1    0.000902000088228157 
      0.454545454545455                     0.5                     0.5         5.0454546538266                     5.5                     5.5      0.0207124999456514                       0     0.00414347691610209        14.7351629942172                       0                      -1    0.000901545568569148 
      0.464646464646465                     0.5                     0.5        5.14646473075402                     5.5                     5.5      0.0205691666134018                       0     0.00385120426135774         14.734360366691                       0                      -1    0.000902757698721965 
      0.474747474747475                     0.5                     0.5        5.24747480768145                     5.5                     5.5      0.0204258332811522                       0     0.00355893160661339        14.7335577391647                       0                      -1    0.000903969828874782 
      0.484848484848485                     0.5                     0.5        5.34848488460887                     5.5                     5.5      0.0202824999489026                       0     0.00326665895186903        14.7327551116385                       0                      -1    0.000905181959027597 
      0.494949494949495                     0.5                     0.5        5.44949496153629                     5.5                     5.5       0.020139166616653                       0     0.00297438629712468        14.7319524841122                       0                      -1    0.000906394089180412 
      0.505050505050505                     0.5                     0.5        5.55050503846371                     5.5                     5.5      0.0199958332844033                       0     0.00268211364238033         14.731149856586                       0                      -1    0.000907606219333229 
      0.515151515151515                     0.5                     0.5        5.65151511539113                     5.5                     5.5      0.0198524999521537                       0     0.00238984098763598        14.7303472290598                       0                      -1    0.000908818349486044 
      0.525252525252525                     0.5                     0.5        5.75252519231855                     5.5                     5.5      0.0197091666199041                       0     0.00209756833289162        14.7295446015335                       0                      -1     0.00091003047963886 
      0.535353535353535                     0.5                     0.5        5.85353526924598                     5.5                     5.5      0.0195658332876545                       0     0.00180529567814727        14.7287419740073                       0                      -1    0.000911242609791676 
      0.545454545454545                     0.5                     0.5         5.9545453461734                     5.5                     5.5      0.0194224999554049                       0     0.00151302302340292         14.727939346481                       0                      -1    0.000912454739944492 
      0.555555555555556                     0.5                     0.5        6.05555545621445                     5.5                     5.5       0.019265777725685                       0     0.00127163907017876        14.7278807952556                       0                      -1    0.000914555738692506 
      0.565656565656566                     0.5                     0.5        6.15656559334859                     5.5                     5.5      0.0190981008912541                       0     0.00107189152582666        14.7284310366337                       0                      -1    0.000917383997031701 
      0.575757575757576                     0.5                     0.5        6.25757573048273                     5.5                     5.5      0.0189304240568231                       0    0.000872143981474554        14.7289812780118                       0                      -1    0.000920212255370894 
      0.585858585858586                     0.5                     0.5        6.35858586761687                     5.5                     5.5      0.0187627472223921                       0    0.000672396437122452        14.7295315193899                       0                      -1    0.000923040513710089 
      0.595959595959596                     0.5                     0.5        6.45959600475101                     5.5                     5.5      0.0185950703879611                       0     0.00047264889277035        14.7300817607681                       0                      -1    0.000925868772049282 
      0.606060606060606                     0.5                     0.5        6.56060614188515                     5.5                     5.5      0.0184273935535301                       0    0.000272901348418246        14.7306320021462                       0                      -1    0.000928697030388476 
      0.616161616161616                     0.5                     0.5        6.66161627901929                     5.5                     5.5      0.0182597167190991                       0   7.31538040661438E-005        14.7311822435243                       0                      -1     0.00093152528872767 
      0.626262626262626                     0.5                     0.5        6.76262641615343                     5.5                     5.5      0.0180920398846682                       0    -0.00012659374028596        14.7317324849024                       0                      -1    0.000934353547066864 
      0.636363636363636                     0.5                     0.5        6.86363655328757                     5.5                     5.5      0.0179243630502372                       0   -0.000326341284638063        14.7322827262806                       0                      -1    0.000937181805406059 
      0.646464646464647                     0.5                     0.5        6.96464669042172                     5.5                     5.5      0.0177566862158062                       0   -0.000526088828990167        14.7328329676587                       0                      -1    0.000940010063745253 
      0.656565656565657                     0.5                     0.5        7.06565678842135                     5.5                     5.5      0.0175662593717197                       0   -0.000650757759968152        14.7338416146502                       0                      -1    0.000943068144428334 
      0.666666666666667                     0.5                     0.5        7.16666686534877                     5.5                     5.5      0.0173635826495291                       0   -0.000735000164716776        14.7350970928727                       0                      -1    0.000946249974320356 
      0.676767676767677                     0.5                     0.5        7.26767694227619                     5.5                     5.5      0.0171609059273385                       0   -0.000819242569465401        14.7363525710952                       0                      -1    0.000949431804212376 
      0.686868686868687                     0.5                     0.5        7.36868701920361                     5.5                     5.5      0.0169582292051479                       0   -0.000903484974214025        14.7376080493176                       0                      -1    0.000952613634104397 
      0.696969696969697                     0.5                     0.5        7.46969709613103                     5.5                     5.5      0.0167555524829572                       0   -0.000987727378962651        14.7388635275401                       0                      -1    0.000955795463996418 
      0.707070707070707                     0.5                     0.5        7.57070717305846                     5.5                     5.5      0.0165528757607666                       0    -0.00107196978371127        14.7401190057626                       0                      -1    0.000958977293888439 
      0.717171717171717                     0.5                     0.5        7.67171724998588                     5.5                     5.5       0.016350199038576                       0     -0.0011562121884599         14.741374483985                       0                      -1     0.00096215912378046 
      0.727272727272727                     0.5                     0.5         7.7727273269133                     5.5                     5.5      0.0161475223163854                       0    -0.00124045459320852        14.7426299622075                       0                      -1     0.00096534095367248 
      0.737373737373737                     0.5                     0.5        7.87373740384072                     5.5                     5.5      0.0159448455941948                       0    -0.00132469699795715        14.7438854404299                       0                      -1    0.000968522783564501 
      0.747474747474748                     0.5                     0.5        7.97474748076814                     5.5                     5.5      0.0157421688720042                       0    -0.00140893940270577        14.7451409186524                       0                      -1    0.000971704613456522 
      0.757575757575758                     0.5                     0.5        8.07575755769557                     5.5                     5.5      0.0154685831003117                       0    -0.00138219698478905        14.7463841147086                       0                      -1    0.000975189475886747 
      0.767676767676768                     0.5                     0.5        8.17676763462299                     5.5                     5.5      0.0151713609787851                       0    -0.00131845962598388        14.7476232167093                       0                      -1     0.00097877534916304 
      0.777777777777778                     0.5                     0.5        8.27777771155041                     5.5                     5.5      0.0148741388572586                       0    -0.00125472226717871          14.74886231871                       0                      -1    0.000982361222439332 
      0.787878787878788                     0.5                     0.5        8.37878778847783                     5.5                     5.5      0.0145769167357321                       0    -0.00119098490837353        14.7501014207107                       0                      -1    0.000985947095715626 
      0.797979797979798                     0.5                     0.5        8.47979786540526                     5.5                     5.5      0.0142796946142056                       0    -0.00112724754956836        14.7513405227115                       0                      -1    0.000989532968991918 
      0.808080808080808                     0.5                     0.5        8.58080794233268                     5.5                     5.5      0.0139824724926791                       0    -0.00106351019076319        14.7525796247122                       0                      -1    0.000993118842268211 
      0.818181818181818                     0.5                     0.5         8.6818180192601                     5.5                     5.5      0.0136852503711525                       0   -0.000999772831958017        14.7538187267129                       0                      -1    0.000996704715544503 
      0.828282828282828                     0.5                     0.5        8.78282809618752                     5.5                     5.5       0.013388028249626                       0   -0.000936035473152845        14.7550578287137                       0                      -1      0.0010002905888208 
      0.838383838383838                     0.5                     0.5        8.88383817311494                     5.5                     5.5      0.0130908061280995                       0   -0.000872298114347673        14.7562969307144                       0                      -1     0.00100387646209709 
      0.848484848484849                     0.5                     0.5        8.98484825004237                     5.5                     5.5       0.012793584006573                       0   -0.000808560755542501        14.7575360327151                       0                      -1     0.00100746233537338 
      0.858585858585859                     0.5                     0.5        9.08585837814536                     5.5                     5.5      0.0121244232068781                       0     0.00384829929303109        14.7761905131849                       0                      -1     0.00100804312435898 
      0.868686868686869                     0.5                     0.5         9.1868685152795                     5.5                     5.5       0.011389624954765                       0     0.00931572540987442        14.7979183526322                       0                      -1     0.00100809359453474 
      0.878787878787879                     0.5                     0.5        9.28787865241364                     5.5                     5.5       0.010654826702652                       0      0.0147831515267177        14.8196461920794                       0                      -1     0.00100814406471049 
      0.888888888888889                     0.5                     0.5        9.38888878954778                     5.5                     5.5     0.00992002845053899                       0       0.020250577643561        14.8413740315266                       0                      -1     0.00100819453488625 
      0.898989898989899                     0.5                     0.5        9.48989892668192                     5.5                     5.5     0.00918523019842595                       0      0.0257180037604043        14.8631018709739                       0                      -1       0.001008245005062 
      0.909090909090909                     0.5                     0.5        9.59090906381606                     5.5                     5.5     0.00845043194631291                       0      0.0311854298772476        14.8848297104211                       0                      -1     0.00100829547523776 
      0.919191919191919                     0.5                     0.5         9.6919192009502                     5.5                     5.5     0.00771563369419987                       0      0.0366528559940909        14.9065575498683                       0                      -1     0.00100834594541351 
      0.929292929292929                     0.5                     0.5        9.79292933808434                     5.5                     5.5     0.00698083544208684                       0      0.0421202821109342        14.9282853893156                       0                      -1     0.00100839641558927 
      0.939393939393939                     0.5                     0.5        9.89393947521848                     5.5                     5.5      0.0062460371899738                       0      0.0475877082277775        14.9500132287628                       0                      -1     0.00100844688576502 
       0.94949494949495                     0.5                     0.5        9.99494961235263                     5.5                     5.5     0.00551123893786077                       0      0.0530551343446208          14.97174106821                       0                      -1     0.00100849735594078 