TITLE = "dt=0.100000s, t=186.000000s, nu=0.000015, Lx=1.000000, Ly=1.000000, Lz=1.000000, Nx=22, Ny=22, Nz=22 "
VARIABLES =X, Y, Z, I, J, K, U, V, W, T, Xi, FlagP, P 
ZONE F=POINT, I=22, J=22, K=22
0.000000	0.000000	0.000000	0	0	0	0.000000	0.000000	0.000000	10.000000	0.000000	1.000000	0.000000
0.002500	0.000000	0.000000	1	0	0	0.000000	0.000000	0.000000	10.000000	0.000000	1.000000	0.000000
0.012500	0.000000	0.000000	2	0	0	0.000000	0.000000	0.000000	10.000000	0.000000	1.000000	0.000000
0.032500	0.000000	0.000000	3	0	0	0.000000	0.000000	0.000000	10.000000	0.000000	1.000000	0.000000
0.062500	0.000000	0.000000	4	0	0	0.000000	0.000000	0.000000	10.000000	0.000000	1.000000	0.000000
0.102500	0.000000	0.000000	5	0	0	0.000000	0.000000	0.000000	10.000000	0.000000	1.000000	0.000000
0.152500	0.000000	0.000000	6	0	0	0.000000	0.000000	0.000000	10.000000	0.000000	1.000000	0.000000
0.212500	0.000000	0.000000	7	0	0	0.000000	0.000000	0.000000	10.000000	0.000000	1.000000	0.000000
0.282500	0.000000	0.000000	8	0	0	0.000000	0.000000	0.000000	10.000000	0.000000	1.000000	0.000000
0.362500	0.000000	0.000000	9	0	0	0.000000	0.000000	0.000000	10.000000	0.000000	1.000000	0.000000
0.452500	0.000000	0.000000	10	0	0	0.000000	0.000000	0.000000	10.000000	0.000000	1.000000	0.000000
0.547500	0.000000	0.000000	11	0	0	0.000000	0.000000	0.000000	10.000000	0.000000	1.000000	0.000000
0.637500	0.000000	0.000000	12	0	0	0.000000	0.000000	0.000000	10.000000	0.000000	1.000000	0.000000
0.717500	0.000000	0.000000	13	0	0	0.000000	0.000000	0.000000	10.000000	0.000000	1.000000	0.000000
0.787500	0.000000	0.000000	14	0	0	0.000000	0.000000	0.000000	10.000000	0.000000	1.000000	0.000000
0.847500	0.000000	0.000000	15	0	0	0.000000	0.000000	0.000000	10.000000	0.000000	1.000000	0.000000
0.897500	0.000000	0.000000	16	0	0	0.000000	0.000000	0.000000	10.000000	0.000000	1.000000	0.000000
0.937500	0.000000	0.000000	17	0	0	0.000000	0.000000	0.000000	10.000000	0.000000	1.000000	0.000000
0.967500	0.000000	0.000000	18	0	0	0.000000	0.000000	0.000000	10.000000	0.000000	1.000000	0.000000
0.987500	0.000000	0.000000	19	0	0	0.000000	0.000000	0.000000	10.000000	0.000000	1.000000	0.000000
0.997500	0.000000	0.000000	20	0	0	0.000000	0.000000	0.000000	10.000000	0.000000	1.000000	0.000000
1.000000	0.000000	0.000000	21	0	0	0.000000	0.000000	0.000000	16.666667	0.000000	1.000000	0.000000
0.000000	0.002500	0.000000	0	1	0	0.000000	0.000000	0.000000	10.000000	0.000000	1.000000	0.000000
0.002500	0.002500	0.000000	1	1	0	0.000000	0.000000	0.000000	30.000000	0.083240	1.000000	13.354827
0.012500	0.002500	0.000000	2	1	0	0.000000	0.000000	0.000000	30.000000	0.000000	1.000000	13.354568
0.032500	0.002500	0.000000	3	1	0	0.000000	0.000000	0.000000	30.000000	0.000000	1.000000	13.352880
0.062500	0.002500	0.000000	4	1	0	0.000000	0.000000	0.000000	30.000000	0.000000	1.000000	13.346416
0.102500	0.002500	0.000000	5	1	0	0.000000	0.000000	0.000000	30.000000	0.000000	1.000000	13.339899
0.152500	0.002500	0.000000	6	1	0	0.000000	0.000000	0.000000	30.000000	0.000000	1.000000	13.337017
0.212500	0.002500	0.000000	7	1	0	0.000000	0.000000	0.000000	30.000000	0.000000	1.000000	13.333729
0.282500	0.002500	0.000000	8	1	0	0.000000	0.000000	0.000000	30.000000	0.000000	1.000000	13.330445
0.362500	0.002500	0.000000	9	1	0	0.000000	0.000000	0.000000	30.000000	0.000000	1.000000	13.329070
0.452500	0.002500	0.000000	10	1	0	0.000000	0.000000	0.000000	30.000000	0.000000	1.000000	13.330586
0.547500	0.002500	0.000000	11	1	0	0.000000	0.000000	0.000000	30.000000	0.000000	1.000000	13.337845
0.637500	0.002500	0.000000	12	1	0	0.000000	0.000000	0.000000	30.000000	0.000000	1.000000	13.350757
0.717500	0.002500	0.000000	13	1	0	0.000000	0.000000	0.000000	30.000000	0.000000	1.000000	13.367838
0.787500	0.002500	0.000000	14	1	0	0.000000	0.000000	0.000000	30.000000	0.000000	1.000000	13.389171
0.847500	0.002500	0.000000	15	1	0	0.000000	0.000000	0.000000	30.000000	0.000000	1.000000	13.414476
0.897500	0.002500	0.000000	16	1	0	0.000000	0.000000	0.000000	30.000000	0.000000	1.000000	13.439914
0.937500	0.002500	0.000000	17	1	0	0.000000	0.000000	0.000000	30.000000	0.000000	1.000000	13.458755
0.967500	0.002500	0.000000	18	1	0	0.000000	0.000000	0.000000	30.000000	0.000000	1.000000	13.466965
0.987500	0.002500	0.000000	19	1	0	0.000000	0.000000	0.000000	30.000000	0.000000	1.000000	13.467424
0.997500	0.002500	0.000000	20	1	0	0.000000	0.000000	0.000000	30.000000	0.000000	1.000000	13.467863
1.000000	0.002500	0.000000	21	1	0	0.000000	0.000000	0.000000	30.000000	0.000000	1.000000	0.000000
0.000000	0.012500	0.000000	0	2	0	0.000000	0.000000	0.000000	10.000000	0.000000	1.000000	0.000000
0.002500	0.012500	0.000000	1	2	0	0.000000	0.000000	0.000000	30.000000	0.092368	1.000000	13.354583
0.012500	0.012500	0.000000	2	2	0	0.000000	0.000000	0.000000	30.000000	0.000000	1.000000	13.354110
0.032500	0.012500	0.000000	3	2	0	0.000000	0.000000	0.000000	30.000000	0.000000	1.000000	13.352010
0.062500	0.012500	0.000000	4	2	0	0.000000	0.000000	0.000000	30.000000	0.000000	1.000000	13.345417
0.102500	0.012500	0.000000	5	2	0	0.000000	0.000000	0.000000	30.000000	0.000000	1.000000	13.339030
0.152500	0.012500	0.000000	6	2	0	0.000000	0.000000	0.000000	30.000000	0.000000	1.000000	13.336144
0.212500	0.012500	0.000000	7	2	0	0.000000	0.000000	0.000000	30.000000	0.000000	1.000000	13.332161
0.282500	0.012500	0.000000	8	2	0	0.000000	0.000000	0.000000	30.000000	0.000000	1.000000	13.328888
0.362500	0.012500	0.000000	9	2	0	0.000000	0.000000	0.000000	30.000000	0.000000	1.000000	13.327825
0.452500	0.012500	0.000000	10	2	0	0.000000	0.000000	0.000000	30.000000	0.000000	1.000000	13.329559
0.547500	0.012500	0.000000	11	2	0	0.000000	0.000000	0.000000	30.000000	0.000000	1.000000	13.336905
0.637500	0.012500	0.000000	12	2	0	0.000000	0.000000	0.000000	30.000000	0.000000	1.000000	13.349879
0.717500	0.012500	0.000000	13	2	0	0.000000	0.000000	0.000000	30.000000	0.000000	1.000000	13.367032
0.787500	0.012500	0.000000	14	2	0	0.000000	0.000000	0.000000	30.000000	0.000000	1.000000	13.388389
0.847500	0.012500	0.000000	15	2	0	0.000000	0.000000	0.000000	30.000000	0.000000	1.000000	13.413636
0.897500	0.012500	0.000000	16	2	0	0.000000	0.000000	0.000000	30.000000	0.000000	1.000000	13.438998
0.937500	0.012500	0.000000	17	2	0	0.000000	0.000000	0.000000	30.000000	0.000000	1.000000	13.457820
0.967500	0.012500	0.000000	18	2	0	0.000000	0.000000	0.000000	30.000000	0.000000	1.000000	13.466057
0.987500	0.012500	0.000000	19	2	0	0.000000	0.000000	0.000000	30.000000	0.000000	1.000000	13.466559
0.997500	0.012500	0.000000	20	2	0	0.000000	0.000000	0.000000	30.000000	0.000000	1.000000	13.467200
1.000000	0.012500	0.000000	21	2	0	0.000000	0.000000	0.000000	30.000000	0.000000	1.000000	0.000000
0.000000	0.032500	0.000000	0	3	0	0.000000	0.000000	0.000000	10.000000	0.000000	1.000000	0.000000
0.002500	0.032500	0.000000	1	3	0	0.000000	0.000000	0.000000	30.000000	0.096666	1.000000	13.353509
0.012500	0.032500	0.000000	2	3	0	0.000000	0.000000	0.000000	30.000000	0.000000	1.000000	13.353074
0.032500	0.032500	0.000000	3	3	0	0.000000	0.000000	0.000000	30.000000	0.000000	1.000000	13.349300
0.062500	0.032500	0.000000	4	3	0	0.000000	0.000000	0.000000	30.000000	0.000000	1.000000	13.341107
0.102500	0.032500	0.000000	5	3	0	0.000000	0.000000	0.000000	30.000000	0.000000	1.000000	13.335258
0.152500	0.032500	0.000000	6	3	0	0.000000	0.000000	0.000000	30.000000	0.000000	1.000000	13.334412
0.212500	0.032500	0.000000	7	3	0	0.000000	0.000000	0.000000	30.000000	0.000000	1.000000	13.333760
0.282500	0.032500	0.000000	8	3	0	0.000000	0.000000	0.000000	30.000000	0.000000	1.000000	13.331875
0.362500	0.032500	0.000000	9	3	0	0.000000	0.000000	0.000000	30.000000	0.000000	1.000000	13.331368
0.452500	0.032500	0.000000	10	3	0	0.000000	0.000000	0.000000	30.000000	0.000000	1.000000	13.333743
0.547500	0.032500	0.000000	11	3	0	0.000000	0.000000	0.000000	30.000000	0.000000	1.000000	13.341875
0.637500	0.032500	0.000000	12	3	0	0.000000	0.000000	0.000000	30.000000	0.000000	1.000000	13.355462
0.717500	0.032500	0.000000	13	3	0	0.000000	0.000000	0.000000	30.000000	0.000000	1.000000	13.372868
0.787500	0.032500	0.000000	14	3	0	0.000000	0.000000	0.000000	30.000000	0.000000	1.000000	13.394291
0.847500	0.032500	0.000000	15	3	0	0.000000	0.000000	0.000000	30.000000	0.000000	1.000000	13.419673
0.897500	0.032500	0.000000	16	3	0	0.000000	0.000000	0.000000	30.000000	0.000000	1.000000	13.445536
0.937500	0.032500	0.000000	17	3	0	0.000000	0.000000	0.000000	30.000000	0.000000	1.000000	13.465401
0.967500	0.032500	0.000000	18	3	0	0.000000	0.000000	0.000000	30.000000	0.000000	1.000000	13.474632
0.987500	0.032500	0.000000	19	3	0	0.000000	0.000000	0.000000	30.000000	0.000000	1.000000	13.475272
0.997500	0.032500	0.000000	20	3	0	0.000000	0.000000	0.000000	30.000000	0.000000	1.000000	13.475209
1.000000	0.032500	0.000000	21	3	0	0.000000	0.000000	0.000000	30.000000	0.000000	1.000000	0.000000
0.000000	0.062500	0.000000	0	4	0	0.000000	0.000000	0.000000	10.000000	0.000000	1.000000	0.000000
0.002500	0.062500	0.000000	1	4	0	0.000000	0.000000	0.000000	30.000000	0.095586	1.000000	13.351214
0.012500	0.062500	0.000000	2	4	0	0.000000	0.000000	0.000000	30.000000	0.000000	1.000000	13.350690
0.032500	0.062500	0.000000	3	4	0	0.000000	0.000000	0.000000	30.000000	0.000000	1.000000	13.345433
0.062500	0.062500	0.000000	4	4	0	0.000000	0.000000	0.000000	30.000000	0.000000	1.000000	13.337329
0.102500	0.062500	0.000000	5	4	0	0.000000	0.000000	0.000000	30.000000	0.000000	1.000000	13.335561
0.152500	0.062500	0.000000	6	4	0	0.000000	0.000000	0.000000	30.000000	0.000000	1.000000	13.334708
0.212500	0.062500	0.000000	7	4	0	0.000000	0.000000	0.000000	30.000000	0.000000	1.000000	13.333043
0.282500	0.062500	0.000000	8	4	0	0.000000	0.000000	0.000000	30.000000	0.000000	1.000000	13.332540
0.362500	0.062500	0.000000	9	4	0	0.000000	0.000000	0.000000	30.000000	0.000000	1.000000	13.331856
0.452500	0.062500	0.000000	10	4	0	0.000000	0.000000	0.000000	30.000000	0.000000	1.000000	13.333403
0.547500	0.062500	0.000000	11	4	0	0.000000	0.000000	0.000000	30.000000	0.000000	1.000000	13.340115
0.637500	0.062500	0.000000	12	4	0	0.000000	0.000000	0.000000	30.000000	0.000000	1.000000	13.351854
0.717500	0.062500	0.000000	13	4	0	0.000000	0.000000	0.000000	30.000000	0.000000	1.000000	13.367326
0.787500	0.062500	0.000000	14	4	0	0.000000	0.000000	0.000000	30.000000	0.000000	1.000000	13.387341
0.847500	0.062500	0.000000	15	4	0	0.000000	0.000000	0.000000	30.000000	0.000000	1.000000	13.412454
0.897500	0.062500	0.000000	16	4	0	0.000000	0.000000	0.000000	30.000000	0.000000	1.000000	13.439829
0.937500	0.062500	0.000000	17	4	0	0.000000	0.000000	0.000000	30.000000	0.000000	1.000000	13.462939
0.967500	0.062500	0.000000	18	4	0	0.000000	0.000000	0.000000	30.000000	0.000000	1.000000	13.475800
0.987500	0.062500	0.000000	19	4	0	0.000000	0.000000	0.000000	30.000000	0.000000	1.000000	13.478238
0.997500	0.062500	0.000000	20	4	0	0.000000	0.000000	0.000000	30.000000	0.000000	1.000000	13.477960
1.000000	0.062500	0.000000	21	4	0	0.000000	0.000000	0.000000	30.000000	0.000000	1.000000	0.000000
0.000000	0.102500	0.000000	0	5	0	0.000000	0.000000	0.000000	10.000000	0.000000	1.000000	0.000000
0.002500	0.102500	0.000000	1	5	0	0.000000	0.000000	0.000000	30.000000	0.094267	1.000000	13.351265
0.012500	0.102500	0.000000	2	5	0	0.000000	0.000000	0.000000	30.000000	0.000000	1.000000	13.350411
0.032500	0.102500	0.000000	3	5	0	0.000000	0.000000	0.000000	30.000000	0.000000	1.000000	13.344309
0.062500	0.102500	0.000000	4	5	0	0.000000	0.000000	0.000000	30.000000	0.000000	1.000000	13.339124
0.102500	0.102500	0.000000	5	5	0	0.000000	0.000000	0.000000	30.000000	0.000000	1.000000	13.338880
0.152500	0.102500	0.000000	6	5	0	0.000000	0.000000	0.000000	30.000000	0.000000	1.000000	13.335676
0.212500	0.102500	0.000000	7	5	0	0.000000	0.000000	0.000000	30.000000	0.000000	1.000000	13.333572
0.282500	0.102500	0.000000	8	5	0	0.000000	0.000000	0.000000	30.000000	0.000000	1.000000	13.332935
0.362500	0.102500	0.000000	9	5	0	0.000000	0.000000	0.000000	30.000000	0.000000	1.000000	13.331728
0.452500	0.102500	0.000000	10	5	0	0.000000	0.000000	0.000000	30.000000	0.000000	1.000000	13.332135
0.547500	0.102500	0.000000	11	5	0	0.000000	0.000000	0.000000	30.000000	0.000000	1.000000	13.337458
0.637500	0.102500	0.000000	12	5	0	0.000000	0.000000	0.000000	30.000000	0.000000	1.000000	13.348181
0.717500	0.102500	0.000000	13	5	0	0.000000	0.000000	0.000000	30.000000	0.000000	1.000000	13.363345
0.787500	0.102500	0.000000	14	5	0	0.000000	0.000000	0.000000	30.000000	0.000000	1.000000	13.383764
0.847500	0.102500	0.000000	15	5	0	0.000000	0.000000	0.000000	30.000000	0.000000	1.000000	13.409880
0.897500	0.102500	0.000000	16	5	0	0.000000	0.000000	0.000000	30.000000	0.000000	1.000000	13.438430
0.937500	0.102500	0.000000	17	5	0	0.000000	0.000000	0.000000	30.000000	0.000000	1.000000	13.462656
0.967500	0.102500	0.000000	18	5	0	0.000000	0.000000	0.000000	30.000000	0.000000	1.000000	13.476488
0.987500	0.102500	0.000000	19	5	0	0.000000	0.000000	0.000000	30.000000	0.000000	1.000000	13.479373
0.997500	0.102500	0.000000	20	5	0	0.000000	0.000000	0.000000	30.000000	0.000000	1.000000	13.479272
1.000000	0.102500	0.000000	21	5	0	0.000000	0.000000	0.000000	30.000000	0.000000	1.000000	0.000000
0.000000	0.152500	0.000000	0	6	0	0.000000	0.000000	0.000000	10.000000	0.000000	1.000000	0.000000
0.002500	0.152500	0.000000	1	6	0	0.000000	0.000000	0.000000	30.000000	0.093004	1.000000	13.361806
0.012500	0.152500	0.000000	2	6	0	0.000000	0.000000	0.000000	30.000000	0.000000	1.000000	13.360629
0.032500	0.152500	0.000000	3	6	0	0.000000	0.000000	0.000000	30.000000	0.000000	1.000000	13.353496
0.062500	0.152500	0.000000	4	6	0	0.000000	0.000000	0.000000	30.000000	0.000000	1.000000	13.347006
0.102500	0.152500	0.000000	5	6	0	0.000000	0.000000	0.000000	30.000000	0.000000	1.000000	13.345737
0.152500	0.152500	0.000000	6	6	0	0.000000	0.000000	0.000000	30.000000	0.000000	1.000000	13.339398
0.212500	0.152500	0.000000	7	6	0	0.000000	0.000000	0.000000	30.000000	0.000000	1.000000	13.334677
0.282500	0.152500	0.000000	8	6	0	0.000000	0.000000	0.000000	30.000000	0.000000	1.000000	13.332838
0.362500	0.152500	0.000000	9	6	0	0.000000	0.000000	0.000000	30.000000	0.000000	1.000000	13.331392
0.452500	0.152500	0.000000	10	6	0	0.000000	0.000000	0.000000	30.000000	0.000000	1.000000	13.331414
0.547500	0.152500	0.000000	11	6	0	0.000000	0.000000	0.000000	30.000000	0.000000	1.000000	13.336007
0.637500	0.152500	0.000000	12	6	0	0.000000	0.000000	0.000000	30.000000	0.000000	1.000000	13.346089
0.717500	0.152500	0.000000	13	6	0	0.000000	0.000000	0.000000	30.000000	0.000000	1.000000	13.361839
0.787500	0.152500	0.000000	14	6	0	0.000000	0.000000	0.000000	30.000000	0.000000	1.000000	13.384787
0.847500	0.152500	0.000000	15	6	0	0.000000	0.000000	0.000000	30.000000	0.000000	1.000000	13.413995
0.897500	0.152500	0.000000	16	6	0	0.000000	0.000000	0.000000	30.000000	0.000000	1.000000	13.443604
0.937500	0.152500	0.000000	17	6	0	0.000000	0.000000	0.000000	30.000000	0.000000	1.000000	13.465991
0.967500	0.152500	0.000000	18	6	0	0.000000	0.000000	0.000000	30.000000	0.000000	1.000000	13.477178
0.987500	0.152500	0.000000	19	6	0	0.000000	0.000000	0.000000	30.000000	0.000000	1.000000	13.478881
0.997500	0.152500	0.000000	20	6	0	0.000000	0.000000	0.000000	30.000000	0.000000	1.000000	13.478995
1.000000	0.152500	0.000000	21	6	0	0.000000	0.000000	0.000000	30.000000	0.000000	1.000000	0.000000
0.000000	0.212500	0.000000	0	7	0	0.000000	0.000000	0.000000	10.000000	0.000000	1.000000	0.000000
0.002500	0.212500	0.000000	1	7	0	0.000000	0.000000	0.000000	30.000000	0.090966	1.000000	13.378775
0.012500	0.212500	0.000000	2	7	0	0.000000	0.000000	0.000000	30.000000	0.000000	1.000000	13.377339
0.032500	0.212500	0.000000	3	7	0	0.000000	0.000000	0.000000	30.000000	0.000000	1.000000	13.369020
0.062500	0.212500	0.000000	4	7	0	0.000000	0.000000	0.000000	30.000000	0.000000	1.000000	13.359926
0.102500	0.212500	0.000000	5	7	0	0.000000	0.000000	0.000000	30.000000	0.000000	1.000000	13.356316
0.152500	0.212500	0.000000	6	7	0	0.000000	0.000000	0.000000	30.000000	0.000000	1.000000	13.345821
0.212500	0.212500	0.000000	7	7	0	0.000000	0.000000	0.000000	30.000000	0.000000	1.000000	13.337668
0.282500	0.212500	0.000000	8	7	0	0.000000	0.000000	0.000000	30.000000	0.000000	1.000000	13.333311
0.362500	0.212500	0.000000	9	7	0	0.000000	0.000000	0.000000	30.000000	0.000000	1.000000	13.330861
0.452500	0.212500	0.000000	10	7	0	0.000000	0.000000	0.000000	30.000000	0.000000	1.000000	13.330273
0.547500	0.212500	0.000000	11	7	0	0.000000	0.000000	0.000000	30.000000	0.000000	1.000000	13.334235
0.637500	0.212500	0.000000	12	7	0	0.000000	0.000000	0.000000	30.000000	0.000000	1.000000	13.345648
0.717500	0.212500	0.000000	13	7	0	0.000000	0.000000	0.000000	30.000000	0.000000	1.000000	13.365417
0.787500	0.212500	0.000000	14	7	0	0.000000	0.000000	0.000000	30.000000	0.000000	1.000000	13.393297
0.847500	0.212500	0.000000	15	7	0	0.000000	0.000000	0.000000	30.000000	0.000000	1.000000	13.424605
0.897500	0.212500	0.000000	16	7	0	0.000000	0.000000	0.000000	30.000000	0.000000	1.000000	13.451278
0.937500	0.212500	0.000000	17	7	0	0.000000	0.000000	0.000000	30.000000	0.000000	1.000000	13.467245
0.967500	0.212500	0.000000	18	7	0	0.000000	0.000000	0.000000	30.000000	0.000000	1.000000	13.472476
0.987500	0.212500	0.000000	19	7	0	0.000000	0.000000	0.000000	30.000000	0.000000	1.000000	13.471582
0.997500	0.212500	0.000000	20	7	0	0.000000	0.000000	0.000000	30.000000	0.000000	1.000000	13.472102
1.000000	0.212500	0.000000	21	7	0	0.000000	0.000000	0.000000	30.000000	0.000000	1.000000	0.000000
0.000000	0.282500	0.000000	0	8	0	0.000000	0.000000	0.000000	10.000000	0.000000	1.000000	0.000000
0.002500	0.282500	0.000000	1	8	0	0.000000	0.000000	0.000000	30.000000	0.090422	1.000000	13.387769
0.012500	0.282500	0.000000	2	8	0	0.000000	0.000000	0.000000	30.000000	0.000000	1.000000	13.386174
0.032500	0.282500	0.000000	3	8	0	0.000000	0.000000	0.000000	30.000000	0.000000	1.000000	13.377198
0.062500	0.282500	0.000000	4	8	0	0.000000	0.000000	0.000000	30.000000	0.000000	1.000000	13.367680
0.102500	0.282500	0.000000	5	8	0	0.000000	0.000000	0.000000	30.000000	0.000000	1.000000	13.362704
0.152500	0.282500	0.000000	6	8	0	0.000000	0.000000	0.000000	30.000000	0.000000	1.000000	13.349958
0.212500	0.282500	0.000000	7	8	0	0.000000	0.000000	0.000000	30.000000	0.000000	1.000000	13.339761
0.282500	0.282500	0.000000	8	8	0	0.000000	0.000000	0.000000	30.000000	0.000000	1.000000	13.333455
0.362500	0.282500	0.000000	9	8	0	0.000000	0.000000	0.000000	30.000000	0.000000	1.000000	13.330141
0.452500	0.282500	0.000000	10	8	0	0.000000	0.000000	0.000000	30.000000	0.000000	1.000000	13.330102
0.547500	0.282500	0.000000	11	8	0	0.000000	0.000000	0.000000	30.000000	0.000000	1.000000	13.336372
0.637500	0.282500	0.000000	12	8	0	0.000000	0.000000	0.000000	30.000000	0.000000	1.000000	13.351897
0.717500	0.282500	0.000000	13	8	0	0.000000	0.000000	0.000000	30.000000	0.000000	1.000000	13.376093
0.787500	0.282500	0.000000	14	8	0	0.000000	0.000000	0.000000	30.000000	0.000000	1.000000	13.405555
0.847500	0.282500	0.000000	15	8	0	0.000000	0.000000	0.000000	30.000000	0.000000	1.000000	13.433910
0.897500	0.282500	0.000000	16	8	0	0.000000	0.000000	0.000000	30.000000	0.000000	1.000000	13.454093
0.937500	0.282500	0.000000	17	8	0	0.000000	0.000000	0.000000	30.000000	0.000000	1.000000	13.463337
0.967500	0.282500	0.000000	18	8	0	0.000000	0.000000	0.000000	30.000000	0.000000	1.000000	13.464011
0.987500	0.282500	0.000000	19	8	0	0.000000	0.000000	0.000000	30.000000	0.000000	1.000000	13.460537
0.997500	0.282500	0.000000	20	8	0	0.000000	0.000000	0.000000	30.000000	0.000000	1.000000	13.461216
1.000000	0.282500	0.000000	21	8	0	0.000000	0.000000	0.000000	30.000000	0.000000	1.000000	0.000000
0.000000	0.362500	0.000000	0	9	0	0.000000	0.000000	0.000000	10.000000	0.000000	1.000000	0.000000
0.002500	0.362500	0.000000	1	9	0	0.000000	0.000000	0.000000	30.000000	0.092211	1.000000	13.373227
0.012500	0.362500	0.000000	2	9	0	0.000000	0.000000	0.000000	30.000000	0.000000	1.000000	13.372220
0.032500	0.362500	0.000000	3	9	0	0.000000	0.000000	0.000000	30.000000	0.000000	1.000000	13.366494
0.062500	0.362500	0.000000	4	9	0	0.000000	0.000000	0.000000	30.000000	0.000000	1.000000	13.362786
0.102500	0.362500	0.000000	5	9	0	0.000000	0.000000	0.000000	30.000000	0.000000	1.000000	13.359901
0.152500	0.362500	0.000000	6	9	0	0.000000	0.000000	0.000000	30.000000	0.000000	1.000000	13.348579
0.212500	0.362500	0.000000	7	9	0	0.000000	0.000000	0.000000	30.000000	0.000000	1.000000	13.339098
0.282500	0.362500	0.000000	8	9	0	0.000000	0.000000	0.000000	30.000000	0.000000	1.000000	13.333972
0.362500	0.362500	0.000000	9	9	0	0.000000	0.000000	0.000000	30.000000	0.000000	1.000000	13.332308
0.452500	0.362500	0.000000	10	9	0	0.000000	0.000000	0.000000	30.000000	0.000000	1.000000	13.334306
0.547500	0.362500	0.000000	11	9	0	0.000000	0.000000	0.000000	30.000000	0.000000	1.000000	13.342238
0.637500	0.362500	0.000000	12	9	0	0.000000	0.000000	0.000000	30.000000	0.000000	1.000000	13.358005
0.717500	0.362500	0.000000	13	9	0	0.000000	0.000000	0.000000	30.000000	0.000000	1.000000	13.379284
0.787500	0.362500	0.000000	14	9	0	0.000000	0.000000	0.000000	30.000000	0.000000	1.000000	13.401704
0.847500	0.362500	0.000000	15	9	0	0.000000	0.000000	0.000000	30.000000	0.000000	1.000000	13.420199
0.897500	0.362500	0.000000	16	9	0	0.000000	0.000000	0.000000	30.000000	0.000000	1.000000	13.431032
0.937500	0.362500	0.000000	17	9	0	0.000000	0.000000	0.000000	30.000000	0.000000	1.000000	13.433827
0.967500	0.362500	0.000000	18	9	0	0.000000	0.000000	0.000000	30.000000	0.000000	1.000000	13.431360
0.987500	0.362500	0.000000	19	9	0	0.000000	0.000000	0.000000	30.000000	0.000000	1.000000	13.427144
0.997500	0.362500	0.000000	20	9	0	0.000000	0.000000	0.000000	30.000000	0.000000	1.000000	13.427848
1.000000	0.362500	0.000000	21	9	0	0.000000	0.000000	0.000000	30.000000	0.000000	1.000000	0.000000
0.000000	0.452500	0.000000	0	10	0	0.000000	0.000000	0.000000	10.000000	0.000000	1.000000	0.000000
0.002500	0.452500	0.000000	1	10	0	0.000000	0.000000	0.000000	30.000000	0.098157	1.000000	13.370542
0.012500	0.452500	0.000000	2	10	0	0.000000	0.000000	0.000000	30.000000	0.000000	1.000000	13.370078
0.032500	0.452500	0.000000	3	10	0	0.000000	0.000000	0.000000	30.000000	0.000000	1.000000	13.368295
0.062500	0.452500	0.000000	4	10	0	0.000000	0.000000	0.000000	30.000000	0.000000	1.000000	13.363881
0.102500	0.452500	0.000000	5	10	0	0.000000	0.000000	0.000000	30.000000	0.000000	1.000000	13.357702
0.152500	0.452500	0.000000	6	10	0	0.000000	0.000000	0.000000	30.000000	0.000000	1.000000	13.348181
0.212500	0.452500	0.000000	7	10	0	0.000000	0.000000	0.000000	30.000000	0.000000	1.000000	13.338801
0.282500	0.452500	0.000000	8	10	0	0.000000	0.000000	0.000000	30.000000	0.000000	1.000000	13.331904
0.362500	0.452500	0.000000	9	10	0	0.000000	0.000000	0.000000	30.000000	0.000000	1.000000	13.326616
0.452500	0.452500	0.000000	10	10	0	0.000000	0.000000	0.000000	30.000000	0.000000	1.000000	13.324598
0.547500	0.452500	0.000000	11	10	0	0.000000	0.000000	0.000000	30.000000	0.000000	1.000000	13.329121
0.637500	0.452500	0.000000	12	10	0	0.000000	0.000000	0.000000	30.000000	0.000000	1.000000	13.341384
0.717500	0.452500	0.000000	13	10	0	0.000000	0.000000	0.000000	30.000000	0.000000	1.000000	13.358618
0.787500	0.452500	0.000000	14	10	0	0.000000	0.000000	0.000000	30.000000	0.000000	1.000000	13.376492
0.847500	0.452500	0.000000	15	10	0	0.000000	0.000000	0.000000	30.000000	0.000000	1.000000	13.390511
0.897500	0.452500	0.000000	16	10	0	0.000000	0.000000	0.000000	30.000000	0.000000	1.000000	13.398145
0.937500	0.452500	0.000000	17	10	0	0.000000	0.000000	0.000000	30.000000	0.000000	1.000000	13.399767
0.967500	0.452500	0.000000	18	10	0	0.000000	0.000000	0.000000	30.000000	0.000000	1.000000	13.397776
0.987500	0.452500	0.000000	19	10	0	0.000000	0.000000	0.000000	30.000000	0.000000	1.000000	13.394900
0.997500	0.452500	0.000000	20	10	0	0.000000	0.000000	0.000000	30.000000	0.000000	1.000000	13.395429
1.000000	0.452500	0.000000	21	10	0	0.000000	0.000000	0.000000	30.000000	0.000000	1.000000	0.000000
0.000000	0.547500	0.000000	0	11	0	0.000000	0.000000	0.000000	10.000000	0.000000	1.000000	0.000000
0.002500	0.547500	0.000000	1	11	0	0.000000	0.000000	0.000000	30.000000	0.092543	1.000000	13.373004
0.012500	0.547500	0.000000	2	11	0	0.000000	0.000000	0.000000	30.000000	0.000000	1.000000	13.372143
0.032500	0.547500	0.000000	3	11	0	0.000000	0.000000	0.000000	30.000000	0.000000	1.000000	13.366092
0.062500	0.547500	0.000000	4	11	0	0.000000	0.000000	0.000000	30.000000	0.000000	1.000000	13.361247
0.102500	0.547500	0.000000	5	11	0	0.000000	0.000000	0.000000	30.000000	0.000000	1.000000	13.360442
0.152500	0.547500	0.000000	6	11	0	0.000000	0.000000	0.000000	30.000000	0.000000	1.000000	13.353072
0.212500	0.547500	0.000000	7	11	0	0.000000	0.000000	0.000000	30.000000	0.000000	1.000000	13.341491
0.282500	0.547500	0.000000	8	11	0	0.000000	0.000000	0.000000	30.000000	0.000000	1.000000	13.335194
0.362500	0.547500	0.000000	9	11	0	0.000000	0.000000	0.000000	30.000000	0.000000	1.000000	13.332802
0.452500	0.547500	0.000000	10	11	0	0.000000	0.000000	0.000000	30.000000	0.000000	1.000000	13.333927
0.547500	0.547500	0.000000	11	11	0	0.000000	0.000000	0.000000	30.000000	0.000000	1.000000	13.341477
0.637500	0.547500	0.000000	12	11	0	0.000000	0.000000	0.000000	30.000000	0.000000	1.000000	13.357007
0.717500	0.547500	0.000000	13	11	0	0.000000	0.000000	0.000000	30.000000	0.000000	1.000000	13.378084
0.787500	0.547500	0.000000	14	11	0	0.000000	0.000000	0.000000	30.000000	0.000000	1.000000	13.400315
0.847500	0.547500	0.000000	15	11	0	0.000000	0.000000	0.000000	30.000000	0.000000	1.000000	13.418525
0.897500	0.547500	0.000000	16	11	0	0.000000	0.000000	0.000000	30.000000	0.000000	1.000000	13.429120
0.937500	0.547500	0.000000	17	11	0	0.000000	0.000000	0.000000	30.000000	0.000000	1.000000	13.431891
0.967500	0.547500	0.000000	18	11	0	0.000000	0.000000	0.000000	30.000000	0.000000	1.000000	13.429480
0.987500	0.547500	0.000000	19	11	0	0.000000	0.000000	0.000000	30.000000	0.000000	1.000000	13.425205
0.997500	0.547500	0.000000	20	11	0	0.000000	0.000000	0.000000	30.000000	0.000000	1.000000	13.425907
1.000000	0.547500	0.000000	21	11	0	0.000000	0.000000	0.000000	30.000000	0.000000	1.000000	0.000000
0.000000	0.637500	0.000000	0	12	0	0.000000	0.000000	0.000000	10.000000	0.000000	1.000000	0.000000
0.002500	0.637500	0.000000	1	12	0	0.000000	0.000000	0.000000	30.000000	0.092326	1.000000	13.381726
0.012500	0.637500	0.000000	2	12	0	0.000000	0.000000	0.000000	30.000000	0.000000	1.000000	13.380622
0.032500	0.637500	0.000000	3	12	0	0.000000	0.000000	0.000000	30.000000	0.000000	1.000000	13.372834
0.062500	0.637500	0.000000	4	12	0	0.000000	0.000000	0.000000	30.000000	0.000000	1.000000	13.363633
0.102500	0.637500	0.000000	5	12	0	0.000000	0.000000	0.000000	30.000000	0.000000	1.000000	13.362246
0.152500	0.637500	0.000000	6	12	0	0.000000	0.000000	0.000000	30.000000	0.000000	1.000000	13.355726
0.212500	0.637500	0.000000	7	12	0	0.000000	0.000000	0.000000	30.000000	0.000000	1.000000	13.342508
0.282500	0.637500	0.000000	8	12	0	0.000000	0.000000	0.000000	30.000000	0.000000	1.000000	13.334027
0.362500	0.637500	0.000000	9	12	0	0.000000	0.000000	0.000000	30.000000	0.000000	1.000000	13.330087
0.452500	0.637500	0.000000	10	12	0	0.000000	0.000000	0.000000	30.000000	0.000000	1.000000	13.330316
0.547500	0.637500	0.000000	11	12	0	0.000000	0.000000	0.000000	30.000000	0.000000	1.000000	13.337594
0.637500	0.637500	0.000000	12	12	0	0.000000	0.000000	0.000000	30.000000	0.000000	1.000000	13.354704
0.717500	0.637500	0.000000	13	12	0	0.000000	0.000000	0.000000	30.000000	0.000000	1.000000	13.380924
0.787500	0.637500	0.000000	14	12	0	0.000000	0.000000	0.000000	30.000000	0.000000	1.000000	13.412109
0.847500	0.637500	0.000000	15	12	0	0.000000	0.000000	0.000000	30.000000	0.000000	1.000000	13.440637
0.897500	0.637500	0.000000	16	12	0	0.000000	0.000000	0.000000	30.000000	0.000000	1.000000	13.459624
0.937500	0.637500	0.000000	17	12	0	0.000000	0.000000	0.000000	30.000000	0.000000	1.000000	13.467408
0.967500	0.637500	0.000000	18	12	0	0.000000	0.000000	0.000000	30.000000	0.000000	1.000000	13.466951
0.987500	0.637500	0.000000	19	12	0	0.000000	0.000000	0.000000	30.000000	0.000000	1.000000	13.462522
0.997500	0.637500	0.000000	20	12	0	0.000000	0.000000	0.000000	30.000000	0.000000	1.000000	13.463373
1.000000	0.637500	0.000000	21	12	0	0.000000	0.000000	0.000000	30.000000	0.000000	1.000000	0.000000
0.000000	0.717500	0.000000	0	13	0	0.000000	0.000000	0.000000	10.000000	0.000000	1.000000	0.000000
0.002500	0.717500	0.000000	1	13	0	0.000000	0.000000	0.000000	30.000000	0.092203	1.000000	13.379705
0.012500	0.717500	0.000000	2	13	0	0.000000	0.000000	0.000000	30.000000	0.000000	1.000000	13.378544
0.032500	0.717500	0.000000	3	13	0	0.000000	0.000000	0.000000	30.000000	0.000000	1.000000	13.370459
0.062500	0.717500	0.000000	4	13	0	0.000000	0.000000	0.000000	30.000000	0.000000	1.000000	13.360502
0.102500	0.717500	0.000000	5	13	0	0.000000	0.000000	0.000000	30.000000	0.000000	1.000000	13.359454
0.152500	0.717500	0.000000	6	13	0	0.000000	0.000000	0.000000	30.000000	0.000000	1.000000	13.353589
0.212500	0.717500	0.000000	7	13	0	0.000000	0.000000	0.000000	30.000000	0.000000	1.000000	13.341073
0.282500	0.717500	0.000000	8	13	0	0.000000	0.000000	0.000000	30.000000	0.000000	1.000000	13.333100
0.362500	0.717500	0.000000	9	13	0	0.000000	0.000000	0.000000	30.000000	0.000000	1.000000	13.329412
0.452500	0.717500	0.000000	10	13	0	0.000000	0.000000	0.000000	30.000000	0.000000	1.000000	13.329179
0.547500	0.717500	0.000000	11	13	0	0.000000	0.000000	0.000000	30.000000	0.000000	1.000000	13.334574
0.637500	0.717500	0.000000	12	13	0	0.000000	0.000000	0.000000	30.000000	0.000000	1.000000	13.348458
0.717500	0.717500	0.000000	13	13	0	0.000000	0.000000	0.000000	30.000000	0.000000	1.000000	13.372289
0.787500	0.717500	0.000000	14	13	0	0.000000	0.000000	0.000000	30.000000	0.000000	1.000000	13.404588
0.847500	0.717500	0.000000	15	13	0	0.000000	0.000000	0.000000	30.000000	0.000000	1.000000	13.437392