TITLE = "dt=0.100000s, t=186.000000s, nu=0.000015, Lx=1.000000, Ly=1.000000, Lz=1.000000, Nx=22, Ny=22, Nz=22 "
VARIABLES =X, Y, Z, I, J, K, U, V, W, T, Xi, FlagP, P 
ZONE F=POINT, I=22, J=22, K=22
0.000000	0.000000	0.000000	0	0	0	0.000000	0.000000	0.000000	10.000000	0.000000	1.000000	0.000000
0.002500	0.000000	0.000000	1	0	0	0.000000	0.000000	0.000000	10.000000	0.000000	1.000000	0.000000
0.012500	0.000000	0.000000	2	0	0	0.000000	0.000000	0.000000	10.000000	0.000000	1.000000	0.000000
0.032500	0.000000	0.000000	3	0	0	0.000000	0.000000	0.000000	10.000000	0.000000	1.000000	0.000000
0.062500	0.000000	0.000000	4	0	0	0.000000	0.000000	0.000000	10.000000	0.000000	1.000000	0.000000
0.102500	0.000000	0.000000	5	0	0	0.000000	0.000000	0.000000	10.000000	0.000000	1.000000	0.000000
0.152500	0.000000	0.000000	6	0	0	0.000000	0.000000	0.000000	10.000000	0.000000	1.000000	0.000000
0.212500	0.000000	0.000000	7	0	0	0.000000	0.000000	0.000000	10.000000	0.000000	1.000000	0.000000
0.282500	0.000000	0.000000	8	0	0	0.000000	0.000000	0.000000	10.000000	0.000000	1.000000	0.000000
0.362500	0.000000	0.000000	9	0	0	0.000000	0.000000	0.000000	10.000000	0.000000	1.000000	0.000000
0.452500	0.000000	0.000000	10	0	0	0.000000	0.000000	0.000000	10.000000	0.000000	1.000000	0.000000
0.547500	0.000000	0.000000	11	0	0	0.000000	0.000000	0.000000	10.000000	0.000000	1.000000	0.000000
0.637500	0.000000	0.000000	12	0	0	0.000000	0.000000	0.000000	10.000000	0.000000	1.000000	0.000000
0.717500	0.000000	0.000000	13	0	0	0.000000	0.000000	0.000000	10.000000	0.000000	1.000000	0.000000
0.787500	0.000000	0.000000	14	0	0	0.000000	0.000000	0.000000	10.000000	0.000000	1.000000	0.000000
0.847500	0.000000	0.000000	15	0	0	0.000000	0.000000	0.000000	10.000000	0.000000	1.000000	0.000000
0.897500	0.000000	0.000000	16	0	0	0.000000	0.000000	0.000000	10.000000	0.000000	1.000000	0.000000
0.937500	0.000000	0.000000	17	0	0	0.000000	0.000000	0.000000	10.000000	0.000000	1.000000	0.000000
0.967500	0.000000	0.000000	18	0	0	0.000000	0.000000	0.000000	10.000000	0.000000	1.000000	0.000000
0.987500	0.000000	0.000000	19	0	0	0.000000	0.000000	0.000000	10.000000	0.000000	1.000000	0.000000
0.997500	0.000000	0.000000	20	0	0	0.000000	0.000000	0.000000	10.000000	0.000000	1.000000	0.000000
1.000000	0.000000	0.000000	21	0	0	0.000000	0.000000	0.000000	16.666667	0.000000	1.000000	0.000000
0.000000	0.002500	0.000000	0	1	0	0.000000	0.000000	0.000000	10.000000	0.000000	1.000000	0.000000
0.002500	0.002500	0.000000	1	1	0	0.000000	0.000000	0.000000	30.000000	0.089394	1.000000	13.205632
0.012500	0.002500	0.000000	2	1	0	0.000000	0.000000	0.000000	30.000000	0.000000	1.000000	13.205267
0.032500	0.002500	0.000000	3	1	0	0.000000	0.000000	0.000000	30.000000	0.000000	1.000000	13.203469
0.062500	0.002500	0.000000	4	1	0	0.000000	0.000000	0.000000	30.000000	0.000000	1.000000	13.201769
0.102500	0.002500	0.000000	5	1	0	0.000000	0.000000	0.000000	30.000000	0.000000	1.000000	13.199408
0.152500	0.002500	0.000000	6	1	0	0.000000	0.000000	0.000000	30.000000	0.000000	1.000000	13.191487
0.212500	0.002500	0.000000	7	1	0	0.000000	0.000000	0.000000	30.000000	0.000000	1.000000	13.183352
0.282500	0.002500	0.000000	8	1	0	0.000000	0.000000	0.000000	30.000000	0.000000	1.000000	13.176720
0.362500	0.002500	0.000000	9	1	0	0.000000	0.000000	0.000000	30.000000	0.000000	1.000000	13.171566
0.452500	0.002500	0.000000	10	1	0	0.000000	0.000000	0.000000	30.000000	0.000000	1.000000	13.168545
0.547500	0.002500	0.000000	11	1	0	0.000000	0.000000	0.000000	30.000000	0.000000	1.000000	13.169574
0.637500	0.002500	0.000000	12	1	0	0.000000	0.000000	0.000000	30.000000	0.000000	1.000000	13.174499
0.717500	0.002500	0.000000	13	1	0	0.000000	0.000000	0.000000	30.000000	0.000000	1.000000	13.180564
0.787500	0.002500	0.000000	14	1	0	0.000000	0.000000	0.000000	30.000000	0.000000	1.000000	13.184454
0.847500	0.002500	0.000000	15	1	0	0.000000	0.000000	0.000000	30.000000	0.000000	1.000000	13.182743
0.897500	0.002500	0.000000	16	1	0	0.000000	0.000000	0.000000	30.000000	0.000000	1.000000	13.173990
0.937500	0.002500	0.000000	17	1	0	0.000000	0.000000	0.000000	30.000000	0.000000	1.000000	13.164607
0.967500	0.002500	0.000000	18	1	0	0.000000	0.000000	0.000000	30.000000	0.000000	1.000000	13.162250
0.987500	0.002500	0.000000	19	1	0	0.000000	0.000000	0.000000	30.000000	0.000000	1.000000	13.164280
0.997500	0.002500	0.000000	20	1	0	0.000000	0.000000	0.000000	30.000000	0.000000	1.000000	13.160612
1.000000	0.002500	0.000000	21	1	0	0.000000	0.000000	0.000000	30.000000	0.000000	1.000000	0.000000
0.000000	0.012500	0.000000	0	2	0	0.000000	0.000000	0.000000	10.000000	0.000000	1.000000	0.000000
0.002500	0.012500	0.000000	1	2	0	0.000000	0.000000	0.000000	30.000000	0.094675	1.000000	13.205175
0.012500	0.012500	0.000000	2	2	0	0.000000	0.000000	0.000000	30.000000	0.000000	1.000000	13.204580
0.032500	0.012500	0.000000	3	2	0	0.000000	0.000000	0.000000	30.000000	0.000000	1.000000	13.202358
0.062500	0.012500	0.000000	4	2	0	0.000000	0.000000	0.000000	30.000000	0.000000	1.000000	13.200477
0.102500	0.012500	0.000000	5	2	0	0.000000	0.000000	0.000000	30.000000	0.000000	1.000000	13.197988
0.152500	0.012500	0.000000	6	2	0	0.000000	0.000000	0.000000	30.000000	0.000000	1.000000	13.189930
0.212500	0.012500	0.000000	7	2	0	0.000000	0.000000	0.000000	30.000000	0.000000	1.000000	13.181847
0.282500	0.012500	0.000000	8	2	0	0.000000	0.000000	0.000000	30.000000	0.000000	1.000000	13.175197
0.362500	0.012500	0.000000	9	2	0	0.000000	0.000000	0.000000	30.000000	0.000000	1.000000	13.170090
0.452500	0.012500	0.000000	10	2	0	0.000000	0.000000	0.000000	30.000000	0.000000	1.000000	13.167162
0.547500	0.012500	0.000000	11	2	0	0.000000	0.000000	0.000000	30.000000	0.000000	1.000000	13.168237
0.637500	0.012500	0.000000	12	2	0	0.000000	0.000000	0.000000	30.000000	0.000000	1.000000	13.173263
0.717500	0.012500	0.000000	13	2	0	0.000000	0.000000	0.000000	30.000000	0.000000	1.000000	13.179613
0.787500	0.012500	0.000000	14	2	0	0.000000	0.000000	0.000000	30.000000	0.000000	1.000000	13.183902
0.847500	0.012500	0.000000	15	2	0	0.000000	0.000000	0.000000	30.000000	0.000000	1.000000	13.182762
0.897500	0.012500	0.000000	16	2	0	0.000000	0.000000	0.000000	30.000000	0.000000	1.000000	13.174457
0.937500	0.012500	0.000000	17	2	0	0.000000	0.000000	0.000000	30.000000	0.000000	1.000000	13.165366
0.967500	0.012500	0.000000	18	2	0	0.000000	0.000000	0.000000	30.000000	0.000000	1.000000	13.163347
0.987500	0.012500	0.000000	19	2	0	0.000000	0.000000	0.000000	30.000000	0.000000	1.000000	13.165552
0.997500	0.012500	0.000000	20	2	0	0.000000	0.000000	0.000000	30.000000	0.000000	1.000000	13.162497
1.000000	0.012500	0.000000	21	2	0	0.000000	0.000000	0.000000	30.000000	0.000000	1.000000	0.000000
0.000000	0.032500	0.000000	0	3	0	0.000000	0.000000	0.000000	10.000000	0.000000	1.000000	0.000000
0.002500	0.032500	0.000000	1	3	0	0.000000	0.000000	0.000000	30.000000	0.092044	1.000000	13.204343
0.012500	0.032500	0.000000	2	3	0	0.000000	0.000000	0.000000	30.000000	0.000000	1.000000	13.203520
0.032500	0.032500	0.000000	3	3	0	0.000000	0.000000	0.000000	30.000000	0.000000	1.000000	13.200182
0.062500	0.032500	0.000000	4	3	0	0.000000	0.000000	0.000000	30.000000	0.000000	1.000000	13.199693
0.102500	0.032500	0.000000	5	3	0	0.000000	0.000000	0.000000	30.000000	0.000000	1.000000	13.199544
0.152500	0.032500	0.000000	6	3	0	0.000000	0.000000	0.000000	30.000000	0.000000	1.000000	13.191637
0.212500	0.032500	0.000000	7	3	0	0.000000	0.000000	0.000000	30.000000	0.000000	1.000000	13.183391
0.282500	0.032500	0.000000	8	3	0	0.000000	0.000000	0.000000	30.000000	0.000000	1.000000	13.176468
0.362500	0.032500	0.000000	9	3	0	0.000000	0.000000	0.000000	30.000000	0.000000	1.000000	13.171109
0.452500	0.032500	0.000000	10	3	0	0.000000	0.000000	0.000000	30.000000	0.000000	1.000000	13.168101
0.547500	0.032500	0.000000	11	3	0	0.000000	0.000000	0.000000	30.000000	0.000000	1.000000	13.169176
0.637500	0.032500	0.000000	12	3	0	0.000000	0.000000	0.000000	30.000000	0.000000	1.000000	13.174341
0.717500	0.032500	0.000000	13	3	0	0.000000	0.000000	0.000000	30.000000	0.000000	1.000000	13.181442
0.787500	0.032500	0.000000	14	3	0	0.000000	0.000000	0.000000	30.000000	0.000000	1.000000	13.187518
0.847500	0.032500	0.000000	15	3	0	0.000000	0.000000	0.000000	30.000000	0.000000	1.000000	13.189479
0.897500	0.032500	0.000000	16	3	0	0.000000	0.000000	0.000000	30.000000	0.000000	1.000000	13.185315
0.937500	0.032500	0.000000	17	3	0	0.000000	0.000000	0.000000	30.000000	0.000000	1.000000	13.179327
0.967500	0.032500	0.000000	18	3	0	0.000000	0.000000	0.000000	30.000000	0.000000	1.000000	13.177029
0.987500	0.032500	0.000000	19	3	0	0.000000	0.000000	0.000000	30.000000	0.000000	1.000000	13.179531
0.997500	0.032500	0.000000	20	3	0	0.000000	0.000000	0.000000	30.000000	0.000000	1.000000	13.177665
1.000000	0.032500	0.000000	21	3	0	0.000000	0.000000	0.000000	30.000000	0.000000	1.000000	0.000000
0.000000	0.062500	0.000000	0	4	0	0.000000	0.000000	0.000000	10.000000	0.000000	1.000000	0.000000
0.002500	0.062500	0.000000	1	4	0	0.000000	0.000000	0.000000	30.000000	0.091703	1.000000	13.205029
0.012500	0.062500	0.000000	2	4	0	0.000000	0.000000	0.000000	30.000000	0.000000	1.000000	13.203896
0.032500	0.062500	0.000000	3	4	0	0.000000	0.000000	0.000000	30.000000	0.000000	1.000000	13.201102
0.062500	0.062500	0.000000	4	4	0	0.000000	0.000000	0.000000	30.000000	0.000000	1.000000	13.200721
0.102500	0.062500	0.000000	5	4	0	0.000000	0.000000	0.000000	30.000000	0.000000	1.000000	13.199592
0.152500	0.062500	0.000000	6	4	0	0.000000	0.000000	0.000000	30.000000	0.000000	1.000000	13.191994
0.212500	0.062500	0.000000	7	4	0	0.000000	0.000000	0.000000	30.000000	0.000000	1.000000	13.183749
0.282500	0.062500	0.000000	8	4	0	0.000000	0.000000	0.000000	30.000000	0.000000	1.000000	13.176611
0.362500	0.062500	0.000000	9	4	0	0.000000	0.000000	0.000000	30.000000	0.000000	1.000000	13.171029
0.452500	0.062500	0.000000	10	4	0	0.000000	0.000000	0.000000	30.000000	0.000000	1.000000	13.168013
0.547500	0.062500	0.000000	11	4	0	0.000000	0.000000	0.000000	30.000000	0.000000	1.000000	13.169338
0.637500	0.062500	0.000000	12	4	0	0.000000	0.000000	0.000000	30.000000	0.000000	1.000000	13.175403
0.717500	0.062500	0.000000	13	4	0	0.000000	0.000000	0.000000	30.000000	0.000000	1.000000	13.184738
0.787500	0.062500	0.000000	14	4	0	0.000000	0.000000	0.000000	30.000000	0.000000	1.000000	13.194978
0.847500	0.062500	0.000000	15	4	0	0.000000	0.000000	0.000000	30.000000	0.000000	1.000000	13.203476
0.897500	0.062500	0.000000	16	4	0	0.000000	0.000000	0.000000	30.000000	0.000000	1.000000	13.207894
0.937500	0.062500	0.000000	17	4	0	0.000000	0.000000	0.000000	30.000000	0.000000	1.000000	13.210380
0.967500	0.062500	0.000000	18	4	0	0.000000	0.000000	0.000000	30.000000	0.000000	1.000000	13.211614
0.987500	0.062500	0.000000	19	4	0	0.000000	0.000000	0.000000	30.000000	0.000000	1.000000	13.213544
0.997500	0.062500	0.000000	20	4	0	0.000000	0.000000	0.000000	30.000000	0.000000	1.000000	13.211500
1.000000	0.062500	0.000000	21	4	0	0.000000	0.000000	0.000000	30.000000	0.000000	1.000000	0.000000
0.000000	0.102500	0.000000	0	5	0	0.000000	0.000000	0.000000	10.000000	0.000000	1.000000	0.000000
0.002500	0.102500	0.000000	1	5	0	0.000000	0.000000	0.000000	30.000000	0.092467	1.000000	13.205911
0.012500	0.102500	0.000000	2	5	0	0.000000	0.000000	0.000000	30.000000	0.000000	1.000000	13.204925
0.032500	0.102500	0.000000	3	5	0	0.000000	0.000000	0.000000	30.000000	0.000000	1.000000	13.201802
0.062500	0.102500	0.000000	4	5	0	0.000000	0.000000	0.000000	30.000000	0.000000	1.000000	13.200751
0.102500	0.102500	0.000000	5	5	0	0.000000	0.000000	0.000000	30.000000	0.000000	1.000000	13.200261
0.152500	0.102500	0.000000	6	5	0	0.000000	0.000000	0.000000	30.000000	0.000000	1.000000	13.192144
0.212500	0.102500	0.000000	7	5	0	0.000000	0.000000	0.000000	30.000000	0.000000	1.000000	13.183346
0.282500	0.102500	0.000000	8	5	0	0.000000	0.000000	0.000000	30.000000	0.000000	1.000000	13.175647
0.362500	0.102500	0.000000	9	5	0	0.000000	0.000000	0.000000	30.000000	0.000000	1.000000	13.169595
0.452500	0.102500	0.000000	10	5	0	0.000000	0.000000	0.000000	30.000000	0.000000	1.000000	13.166283
0.547500	0.102500	0.000000	11	5	0	0.000000	0.000000	0.000000	30.000000	0.000000	1.000000	13.167602
0.637500	0.102500	0.000000	12	5	0	0.000000	0.000000	0.000000	30.000000	0.000000	1.000000	13.174570
0.717500	0.102500	0.000000	13	5	0	0.000000	0.000000	0.000000	30.000000	0.000000	1.000000	13.186591
0.787500	0.102500	0.000000	14	5	0	0.000000	0.000000	0.000000	30.000000	0.000000	1.000000	13.202229
0.847500	0.102500	0.000000	15	5	0	0.000000	0.000000	0.000000	30.000000	0.000000	1.000000	13.218871
0.897500	0.102500	0.000000	16	5	0	0.000000	0.000000	0.000000	30.000000	0.000000	1.000000	13.233843
0.937500	0.102500	0.000000	17	5	0	0.000000	0.000000	0.000000	30.000000	0.000000	1.000000	13.245582
0.967500	0.102500	0.000000	18	5	0	0.000000	0.000000	0.000000	30.000000	0.000000	1.000000	13.250498
0.987500	0.102500	0.000000	19	5	0	0.000000	0.000000	0.000000	30.000000	0.000000	1.000000	13.251912
0.997500	0.102500	0.000000	20	5	0	0.000000	0.000000	0.000000	30.000000	0.000000	1.000000	13.250775
1.000000	0.102500	0.000000	21	5	0	0.000000	0.000000	0.000000	30.000000	0.000000	1.000000	0.000000
0.000000	0.152500	0.000000	0	6	0	0.000000	0.000000	0.000000	10.000000	0.000000	1.000000	0.000000
0.002500	0.152500	0.000000	1	6	0	0.000000	0.000000	0.000000	30.000000	0.091717	1.000000	13.208052
0.012500	0.152500	0.000000	2	6	0	0.000000	0.000000	0.000000	30.000000	0.000000	1.000000	13.206937
0.032500	0.152500	0.000000	3	6	0	0.000000	0.000000	0.000000	30.000000	0.000000	1.000000	13.203256
0.062500	0.152500	0.000000	4	6	0	0.000000	0.000000	0.000000	30.000000	0.000000	1.000000	13.201965
0.102500	0.152500	0.000000	5	6	0	0.000000	0.000000	0.000000	30.000000	0.000000	1.000000	13.201383
0.152500	0.152500	0.000000	6	6	0	0.000000	0.000000	0.000000	30.000000	0.000000	1.000000	13.192802
0.212500	0.152500	0.000000	7	6	0	0.000000	0.000000	0.000000	30.000000	0.000000	1.000000	13.183081
0.282500	0.152500	0.000000	8	6	0	0.000000	0.000000	0.000000	30.000000	0.000000	1.000000	13.174279
0.362500	0.152500	0.000000	9	6	0	0.000000	0.000000	0.000000	30.000000	0.000000	1.000000	13.167436
0.452500	0.152500	0.000000	10	6	0	0.000000	0.000000	0.000000	30.000000	0.000000	1.000000	13.163670
0.547500	0.152500	0.000000	11	6	0	0.000000	0.000000	0.000000	30.000000	0.000000	1.000000	13.165203
0.637500	0.152500	0.000000	12	6	0	0.000000	0.000000	0.000000	30.000000	0.000000	1.000000	13.174018
0.717500	0.152500	0.000000	13	6	0	0.000000	0.000000	0.000000	30.000000	0.000000	1.000000	13.190310
0.787500	0.152500	0.000000	14	6	0	0.000000	0.000000	0.000000	30.000000	0.000000	1.000000	13.212214
0.847500	0.152500	0.000000	15	6	0	0.000000	0.000000	0.000000	30.000000	0.000000	1.000000	13.235330
0.897500	0.152500	0.000000	16	6	0	0.000000	0.000000	0.000000	30.000000	0.000000	1.000000	13.255130
0.937500	0.152500	0.000000	17	6	0	0.000000	0.000000	0.000000	30.000000	0.000000	1.000000	13.268990
0.967500	0.152500	0.000000	18	6	0	0.000000	0.000000	0.000000	30.000000	0.000000	1.000000	13.274688
0.987500	0.152500	0.000000	19	6	0	0.000000	0.000000	0.000000	30.000000	0.000000	1.000000	13.274993
0.997500	0.152500	0.000000	20	6	0	0.000000	0.000000	0.000000	30.000000	0.000000	1.000000	13.274385
1.000000	0.152500	0.000000	21	6	0	0.000000	0.000000	0.000000	30.000000	0.000000	1.000000	0.000000
0.000000	0.212500	0.000000	0	7	0	0.000000	0.000000	0.000000	10.000000	0.000000	1.000000	0.000000
0.002500	0.212500	0.000000	1	7	0	0.000000	0.000000	0.000000	30.000000	0.091695	1.000000	13.211190
0.012500	0.212500	0.000000	2	7	0	0.000000	0.000000	0.000000	30.000000	0.000000	1.000000	13.210031
0.032500	0.212500	0.000000	3	7	0	0.000000	0.000000	0.000000	30.000000	0.000000	1.000000	13.205829
0.062500	0.212500	0.000000	4	7	0	0.000000	0.000000	0.000000	30.000000	0.000000	1.000000	13.203943
0.102500	0.212500	0.000000	5	7	0	0.000000	0.000000	0.000000	30.000000	0.000000	1.000000	13.203092
0.152500	0.212500	0.000000	6	7	0	0.000000	0.000000	0.000000	30.000000	0.000000	1.000000	13.193946
0.212500	0.212500	0.000000	7	7	0	0.000000	0.000000	0.000000	30.000000	0.000000	1.000000	13.183212
0.282500	0.212500	0.000000	8	7	0	0.000000	0.000000	0.000000	30.000000	0.000000	1.000000	13.173141
0.362500	0.212500	0.000000	9	7	0	0.000000	0.000000	0.000000	30.000000	0.000000	1.000000	13.165248
0.452500	0.212500	0.000000	10	7	0	0.000000	0.000000	0.000000	30.000000	0.000000	1.000000	13.160999
0.547500	0.212500	0.000000	11	7	0	0.000000	0.000000	0.000000	30.000000	0.000000	1.000000	13.163374
0.637500	0.212500	0.000000	12	7	0	0.000000	0.000000	0.000000	30.000000	0.000000	1.000000	13.175337
0.717500	0.212500	0.000000	13	7	0	0.000000	0.000000	0.000000	30.000000	0.000000	1.000000	13.196995
0.787500	0.212500	0.000000	14	7	0	0.000000	0.000000	0.000000	30.000000	0.000000	1.000000	13.224827
0.847500	0.212500	0.000000	15	7	0	0.000000	0.000000	0.000000	30.000000	0.000000	1.000000	13.252122
0.897500	0.212500	0.000000	16	7	0	0.000000	0.000000	0.000000	30.000000	0.000000	1.000000	13.272903
0.937500	0.212500	0.000000	17	7	0	0.000000	0.000000	0.000000	30.000000	0.000000	1.000000	13.284625
0.967500	0.212500	0.000000	18	7	0	0.000000	0.000000	0.000000	30.000000	0.000000	1.000000	13.288342
0.987500	0.212500	0.000000	19	7	0	0.000000	0.000000	0.000000	30.000000	0.000000	1.000000	13.288471
0.997500	0.212500	0.000000	20	7	0	0.000000	0.000000	0.000000	30.000000	0.000000	1.000000	13.288013
1.000000	0.212500	0.000000	21	7	0	0.000000	0.000000	0.000000	30.000000	0.000000	1.000000	0.000000
0.000000	0.282500	0.000000	0	8	0	0.000000	0.000000	0.000000	10.000000	0.000000	1.000000	0.000000
0.002500	0.282500	0.000000	1	8	0	0.000000	0.000000	0.000000	30.000000	0.091832	1.000000	13.213729
0.012500	0.282500	0.000000	2	8	0	0.000000	0.000000	0.000000	30.000000	0.000000	1.000000	13.212602
0.032500	0.282500	0.000000	3	8	0	0.000000	0.000000	0.000000	30.000000	0.000000	1.000000	13.208215
0.062500	0.282500	0.000000	4	8	0	0.000000	0.000000	0.000000	30.000000	0.000000	1.000000	13.205966
0.102500	0.282500	0.000000	5	8	0	0.000000	0.000000	0.000000	30.000000	0.000000	1.000000	13.204981
0.152500	0.282500	0.000000	6	8	0	0.000000	0.000000	0.000000	30.000000	0.000000	1.000000	13.195321
0.212500	0.282500	0.000000	7	8	0	0.000000	0.000000	0.000000	30.000000	0.000000	1.000000	13.183703
0.282500	0.282500	0.000000	8	8	0	0.000000	0.000000	0.000000	30.000000	0.000000	1.000000	13.172422
0.362500	0.282500	0.000000	9	8	0	0.000000	0.000000	0.000000	30.000000	0.000000	1.000000	13.163501
0.452500	0.282500	0.000000	10	8	0	0.000000	0.000000	0.000000	30.000000	0.000000	1.000000	13.159038
0.547500	0.282500	0.000000	11	8	0	0.000000	0.000000	0.000000	30.000000	0.000000	1.000000	13.162873
0.637500	0.282500	0.000000	12	8	0	0.000000	0.000000	0.000000	30.000000	0.000000	1.000000	13.178367
0.717500	0.282500	0.000000	13	8	0	0.000000	0.000000	0.000000	30.000000	0.000000	1.000000	13.204423
0.787500	0.282500	0.000000	14	8	0	0.000000	0.000000	0.000000	30.000000	0.000000	1.000000	13.235655
0.847500	0.282500	0.000000	15	8	0	0.000000	0.000000	0.000000	30.000000	0.000000	1.000000	13.264246
0.897500	0.282500	0.000000	16	8	0	0.000000	0.000000	0.000000	30.000000	0.000000	1.000000	13.284450
0.937500	0.282500	0.000000	17	8	0	0.000000	0.000000	0.000000	30.000000	0.000000	1.000000	13.295021
0.967500	0.282500	0.000000	18	8	0	0.000000	0.000000	0.000000	30.000000	0.000000	1.000000	13.298914
0.987500	0.282500	0.000000	19	8	0	0.000000	0.000000	0.000000	30.000000	0.000000	1.000000	13.299357
0.997500	0.282500	0.000000	20	8	0	0.000000	0.000000	0.000000	30.000000	0.000000	1.000000	13.298986
1.000000	0.282500	0.000000	21	8	0	0.000000	0.000000	0.000000	30.000000	0.000000	1.000000	0.000000
0.000000	0.362500	0.000000	0	9	0	0.000000	0.000000	0.000000	10.000000	0.000000	1.000000	0.000000
0.002500	0.362500	0.000000	1	9	0	0.000000	0.000000	0.000000	30.000000	0.092168	1.000000	13.215665
0.012500	0.362500	0.000000	2	9	0	0.000000	0.000000	0.000000	30.000000	0.000000	1.000000	13.214596
0.032500	0.362500	0.000000	3	9	0	0.000000	0.000000	0.000000	30.000000	0.000000	1.000000	13.210139
0.062500	0.362500	0.000000	4	9	0	0.000000	0.000000	0.000000	30.000000	0.000000	1.000000	13.207793
0.102500	0.362500	0.000000	5	9	0	0.000000	0.000000	0.000000	30.000000	0.000000	1.000000	13.206813
0.152500	0.362500	0.000000	6	9	0	0.000000	0.000000	0.000000	30.000000	0.000000	1.000000	13.196853
0.212500	0.362500	0.000000	7	9	0	0.000000	0.000000	0.000000	30.000000	0.000000	1.000000	13.184694
0.282500	0.362500	0.000000	8	9	0	0.000000	0.000000	0.000000	30.000000	0.000000	1.000000	13.172523
0.362500	0.362500	0.000000	9	9	0	0.000000	0.000000	0.000000	30.000000	0.000000	1.000000	13.162957
0.452500	0.362500	0.000000	10	9	0	0.000000	0.000000	0.000000	30.000000	0.000000	1.000000	13.158659
0.547500	0.362500	0.000000	11	9	0	0.000000	0.000000	0.000000	30.000000	0.000000	1.000000	13.164239
0.637500	0.362500	0.000000	12	9	0	0.000000	0.000000	0.000000	30.000000	0.000000	1.000000	13.182886
0.717500	0.362500	0.000000	13	9	0	0.000000	0.000000	0.000000	30.000000	0.000000	1.000000	13.212220
0.787500	0.362500	0.000000	14	9	0	0.000000	0.000000	0.000000	30.000000	0.000000	1.000000	13.245995
0.847500	0.362500	0.000000	15	9	0	0.000000	0.000000	0.000000	30.000000	0.000000	1.000000	13.276563
0.897500	0.362500	0.000000	16	9	0	0.000000	0.000000	0.000000	30.000000	0.000000	1.000000	13.298879
0.937500	0.362500	0.000000	17	9	0	0.000000	0.000000	0.000000	30.000000	0.000000	1.000000	13.312081
0.967500	0.362500	0.000000	18	9	0	0.000000	0.000000	0.000000	30.000000	0.000000	1.000000	13.318188
0.987500	0.362500	0.000000	19	9	0	0.000000	0.000000	0.000000	30.000000	0.000000	1.000000	13.319860
0.997500	0.362500	0.000000	20	9	0	0.000000	0.000000	0.000000	30.000000	0.000000	1.000000	13.319206
1.000000	0.362500	0.000000	21	9	0	0.000000	0.000000	0.000000	30.000000	0.000000	1.000000	0.000000
0.000000	0.452500	0.000000	0	10	0	0.000000	0.000000	0.000000	10.000000	0.000000	1.000000	0.000000
0.002500	0.452500	0.000000	1	10	0	0.000000	0.000000	0.000000	30.000000	0.092660	1.000000	13.217869
0.012500	0.452500	0.000000	2	10	0	0.000000	0.000000	0.000000	30.000000	0.000000	1.000000	13.216820
0.032500	0.452500	0.000000	3	10	0	0.000000	0.000000	0.000000	30.000000	0.000000	1.000000	13.212038
0.062500	0.452500	0.000000	4	10	0	0.000000	0.000000	0.000000	30.000000	0.000000	1.000000	13.209269
0.102500	0.452500	0.000000	5	10	0	0.000000	0.000000	0.000000	30.000000	0.000000	1.000000	13.208363
0.152500	0.452500	0.000000	6	10	0	0.000000	0.000000	0.000000	30.000000	0.000000	1.000000	13.198434
0.212500	0.452500	0.000000	7	10	0	0.000000	0.000000	0.000000	30.000000	0.000000	1.000000	13.186097
0.282500	0.452500	0.000000	8	10	0	0.000000	0.000000	0.000000	30.000000	0.000000	1.000000	13.173455
0.362500	0.452500	0.000000	9	10	0	0.000000	0.000000	0.000000	30.000000	0.000000	1.000000	13.163418
0.452500	0.452500	0.000000	10	10	0	0.000000	0.000000	0.000000	30.000000	0.000000	1.000000	13.159306
0.547500	0.452500	0.000000	11	10	0	0.000000	0.000000	0.000000	30.000000	0.000000	1.000000	13.165969
0.637500	0.452500	0.000000	12	10	0	0.000000	0.000000	0.000000	30.000000	0.000000	1.000000	13.185973
0.717500	0.452500	0.000000	13	10	0	0.000000	0.000000	0.000000	30.000000	0.000000	1.000000	13.216011
0.787500	0.452500	0.000000	14	10	0	0.000000	0.000000	0.000000	30.000000	0.000000	1.000000	13.249982
0.847500	0.452500	0.000000	15	10	0	0.000000	0.000000	0.000000	30.000000	0.000000	1.000000	13.281506
0.897500	0.452500	0.000000	16	10	0	0.000000	0.000000	0.000000	30.000000	0.000000	1.000000	13.306627
0.937500	0.452500	0.000000	17	10	0	0.000000	0.000000	0.000000	30.000000	0.000000	1.000000	13.324342
0.967500	0.452500	0.000000	18	10	0	0.000000	0.000000	0.000000	30.000000	0.000000	1.000000	13.334677
0.987500	0.452500	0.000000	19	10	0	0.000000	0.000000	0.000000	30.000000	0.000000	1.000000	13.338628
0.997500	0.452500	0.000000	20	10	0	0.000000	0.000000	0.000000	30.000000	0.000000	1.000000	13.337846
1.000000	0.452500	0.000000	21	10	0	0.000000	0.000000	0.000000	30.000000	0.000000	1.000000	0.000000
0.000000	0.547500	0.000000	0	11	0	0.000000	0.000000	0.000000	10.000000	0.000000	1.000000	0.000000
0.002500	0.547500	0.000000	1	11	0	0.000000	0.000000	0.000000	30.000000	0.093300	1.000000	13.221187
0.012500	0.547500	0.000000	2	11	0	0.000000	0.000000	0.000000	30.000000	0.000000	1.000000	13.220066
0.032500	0.547500	0.000000	3	11	0	0.000000	0.000000	0.000000	30.000000	0.000000	1.000000	13.214794
0.062500	0.547500	0.000000	4	11	0	0.000000	0.000000	0.000000	30.000000	0.000000	1.000000	13.210573
0.102500	0.547500	0.000000	5	11	0	0.000000	0.000000	0.000000	30.000000	0.000000	1.000000	13.209189
0.152500	0.547500	0.000000	6	11	0	0.000000	0.000000	0.000000	30.000000	0.000000	1.000000	13.199637
0.212500	0.547500	0.000000	7	11	0	0.000000	0.000000	0.000000	30.000000	0.000000	1.000000	13.187608
0.282500	0.547500	0.000000	8	11	0	0.000000	0.000000	0.000000	30.000000	0.000000	1.000000	13.175203
0.362500	0.547500	0.000000	9	11	0	0.000000	0.000000	0.000000	30.000000	0.000000	1.000000	13.165332
0.452500	0.547500	0.000000	10	11	0	0.000000	0.000000	0.000000	30.000000	0.000000	1.000000	13.161661
0.547500	0.547500	0.000000	11	11	0	0.000000	0.000000	0.000000	30.000000	0.000000	1.000000	13.168911
0.637500	0.547500	0.000000	12	11	0	0.000000	0.000000	0.000000	30.000000	0.000000	1.000000	13.188868
0.717500	0.547500	0.000000	13	11	0	0.000000	0.000000	0.000000	30.000000	0.000000	1.000000	13.217519
0.787500	0.547500	0.000000	14	11	0	0.000000	0.000000	0.000000	30.000000	0.000000	1.000000	13.249055
0.847500	0.547500	0.000000	15	11	0	0.000000	0.000000	0.000000	30.000000	0.000000	1.000000	13.278427
0.897500	0.547500	0.000000	16	11	0	0.000000	0.000000	0.000000	30.000000	0.000000	1.000000	13.302635
0.937500	0.547500	0.000000	17	11	0	0.000000	0.000000	0.000000	30.000000	0.000000	1.000000	13.320144
0.967500	0.547500	0.000000	18	11	0	0.000000	0.000000	0.000000	30.000000	0.000000	1.000000	13.329785
0.987500	0.547500	0.000000	19	11	0	0.000000	0.000000	0.000000	30.000000	0.000000	1.000000	13.332148
0.997500	0.547500	0.000000	20	11	0	0.000000	0.000000	0.000000	30.000000	0.000000	1.000000	13.331846
1.000000	0.547500	0.000000	21	11	0	0.000000	0.000000	0.000000	30.000000	0.000000	1.000000	0.000000
0.000000	0.637500	0.000000	0	12	0	0.000000	0.000000	0.000000	10.000000	0.000000	1.000000	0.000000
0.002500	0.637500	0.000000	1	12	0	0.000000	0.000000	0.000000	30.000000	0.093250	1.000000	13.218187
0.012500	0.637500	0.000000	2	12	0	0.000000	0.000000	0.000000	30.000000	0.000000	1.000000	13.217219
0.032500	0.637500	0.000000	3	12	0	0.000000	0.000000	0.000000	30.000000	0.000000	1.000000	13.212574
0.062500	0.637500	0.000000	4	12	0	0.000000	0.000000	0.000000	30.000000	0.000000	1.000000	13.209661
0.102500	0.637500	0.000000	5	12	0	0.000000	0.000000	0.000000	30.000000	0.000000	1.000000	13.208828
0.152500	0.637500	0.000000	6	12	0	0.000000	0.000000	0.000000	30.000000	0.000000	1.000000	13.199573
0.212500	0.637500	0.000000	7	12	0	0.000000	0.000000	0.000000	30.000000	0.000000	1.000000	13.188038
0.282500	0.637500	0.000000	8	12	0	0.000000	0.000000	0.000000	30.000000	0.000000	1.000000	13.176497
0.362500	0.637500	0.000000	9	12	0	0.000000	0.000000	0.000000	30.000000	0.000000	1.000000	13.167922
0.452500	0.637500	0.000000	10	12	0	0.000000	0.000000	0.000000	30.000000	0.000000	1.000000	13.165722
0.547500	0.637500	0.000000	11	12	0	0.000000	0.000000	0.000000	30.000000	0.000000	1.000000	13.173994
0.637500	0.637500	0.000000	12	12	0	0.000000	0.000000	0.000000	30.000000	0.000000	1.000000	13.193162
0.717500	0.637500	0.000000	13	12	0	0.000000	0.000000	0.000000	30.000000	0.000000	1.000000	13.218099
0.787500	0.637500	0.000000	14	12	0	0.000000	0.000000	0.000000	30.000000	0.000000	1.000000	13.242573
0.847500	0.637500	0.000000	15	12	0	0.000000	0.000000	0.000000	30.000000	0.000000	1.000000	13.262176
0.897500	0.637500	0.000000	16	12	0	0.000000	0.000000	0.000000	30.000000	0.000000	1.000000	13.275111
0.937500	0.637500	0.000000	17	12	0	0.000000	0.000000	0.000000	30.000000	0.000000	1.000000	13.281751
0.967500	0.637500	0.000000	18	12	0	0.000000	0.000000	0.000000	30.000000	0.000000	1.000000	13.283798
0.987500	0.637500	0.000000	19	12	0	0.000000	0.000000	0.000000	30.000000	0.000000	1.000000	13.283791
0.997500	0.637500	0.000000	20	12	0	0.000000	0.000000	0.000000	30.000000	0.000000	1.000000	13.283955
1.000000	0.637500	0.000000	21	12	0	0.000000	0.000000	0.000000	30.000000	0.000000	1.000000	0.000000
0.000000	0.717500	0.000000	0	13	0	0.000000	0.000000	0.000000	10.000000	0.000000	1.000000	0.000000
0.002500	0.717500	0.000000	1	13	0	0.000000	0.000000	0.000000	30.000000	0.092924	1.000000	13.218300
0.012500	0.717500	0.000000	2	13	0	0.000000	0.000000	0.000000	30.000000	0.000000	1.000000	13.217257
0.032500	0.717500	0.000000	3	13	0	0.000000	0.000000	0.000000	30.000000	0.000000	1.000000	13.212592
0.062500	0.717500	0.000000	4	13	0	0.000000	0.000000	0.000000	30.000000	0.000000	1.000000	13.209314
0.102500	0.717500	0.000000	5	13	0	0.000000	0.000000	0.000000	30.000000	0.000000	1.000000	13.208570
0.152500	0.717500	0.000000	6	13	0	0.000000	0.000000	0.000000	30.000000	0.000000	1.000000	13.199756
0.212500	0.717500	0.000000	7	13	0	0.000000	0.000000	0.000000	30.000000	0.000000	1.000000	13.188893
0.282500	0.717500	0.000000	8	13	0	0.000000	0.000000	0.000000	30.000000	0.000000	1.000000	13.177902
0.362500	0.717500	0.000000	9	13	0	0.000000	0.000000	0.000000	30.000000	0.000000	1.000000	13.169508
0.452500	0.717500	0.000000	10	13	0	0.000000	0.000000	0.000000	30.000000	0.000000	1.000000	13.166831
0.547500	0.717500	0.000000	11	13	0	0.000000	0.000000	0.000000	30.000000	0.000000	1.000000	13.173311
0.637500	0.717500	0.000000	12	13	0	0.000000	0.000000	0.000000	30.000000	0.000000	1.000000	13.188881
0.717500	0.717500	0.000000	13	13	0	0.000000	0.000000	0.000000	30.000000	0.000000	1.000000	13.208587
0.787500	0.717500	0.000000	14	13	0	0.000000	0.000000	0.000000	30.000000	0.000000	1.000000	13.227202
0.847500	0.717500	0.000000	15	13	0	0.000000	0.000000	0.000000	30.000000	0.000000	1.000000	13.241181