TITLE = "dt=0.100000s, t=186.000000s, nu=0.000015, Lx=1.000000, Ly=1.000000, Lz=1.000000, Nx=22, Ny=22, Nz=22 "
VARIABLES =X, Y, Z, I, J, K, U, V, W, T, Xi, FlagP, P 
ZONE F=POINT, I=22, J=22, K=22
0.000000	0.000000	0.000000	0	0	0	0.000000	0.000000	0.000000	10.000000	0.000000	1.000000	0.000000
0.002500	0.000000	0.000000	1	0	0	0.000000	0.000000	0.000000	10.000000	0.000000	1.000000	0.000000
0.012500	0.000000	0.000000	2	0	0	0.000000	0.000000	0.000000	10.000000	0.000000	1.000000	0.000000
0.032500	0.000000	0.000000	3	0	0	0.000000	0.000000	0.000000	10.000000	0.000000	1.000000	0.000000
0.062500	0.000000	0.000000	4	0	0	0.000000	0.000000	0.000000	10.000000	0.000000	1.000000	0.000000
0.102500	0.000000	0.000000	5	0	0	0.000000	0.000000	0.000000	10.000000	0.000000	1.000000	0.000000
0.152500	0.000000	0.000000	6	0	0	0.000000	0.000000	0.000000	10.000000	0.000000	1.000000	0.000000
0.212500	0.000000	0.000000	7	0	0	0.000000	0.000000	0.000000	10.000000	0.000000	1.000000	0.000000
0.282500	0.000000	0.000000	8	0	0	0.000000	0.000000	0.000000	10.000000	0.000000	1.000000	0.000000
0.362500	0.000000	0.000000	9	0	0	0.000000	0.000000	0.000000	10.000000	0.000000	1.000000	0.000000
0.452500	0.000000	0.000000	10	0	0	0.000000	0.000000	0.000000	10.000000	0.000000	1.000000	0.000000
0.547500	0.000000	0.000000	11	0	0	0.000000	0.000000	0.000000	10.000000	0.000000	1.000000	0.000000
0.637500	0.000000	0.000000	12	0	0	0.000000	0.000000	0.000000	10.000000	0.000000	1.000000	0.000000
0.717500	0.000000	0.000000	13	0	0	0.000000	0.000000	0.000000	10.000000	0.000000	1.000000	0.000000
0.787500	0.000000	0.000000	14	0	0	0.000000	0.000000	0.000000	10.000000	0.000000	1.000000	0.000000
0.847500	0.000000	0.000000	15	0	0	0.000000	0.000000	0.000000	10.000000	0.000000	1.000000	0.000000
0.897500	0.000000	0.000000	16	0	0	0.000000	0.000000	0.000000	10.000000	0.000000	1.000000	0.000000
0.937500	0.000000	0.000000	17	0	0	0.000000	0.000000	0.000000	10.000000	0.000000	1.000000	0.000000
0.967500	0.000000	0.000000	18	0	0	0.000000	0.000000	0.000000	10.000000	0.000000	1.000000	0.000000
0.987500	0.000000	0.000000	19	0	0	0.000000	0.000000	0.000000	10.000000	0.000000	1.000000	0.000000
0.997500	0.000000	0.000000	20	0	0	0.000000	0.000000	0.000000	10.000000	0.000000	1.000000	0.000000
1.000000	0.000000	0.000000	21	0	0	0.000000	0.000000	0.000000	16.666667	0.000000	1.000000	0.000000
0.000000	0.002500	0.000000	0	1	0	0.000000	0.000000	0.000000	10.000000	0.000000	1.000000	0.000000
0.002500	0.002500	0.000000	1	1	0	0.000000	0.000000	0.000000	30.000000	0.086896	1.000000	12.922167
0.012500	0.002500	0.000000	2	1	0	0.000000	0.000000	0.000000	30.000000	0.000000	1.000000	12.921782
0.032500	0.002500	0.000000	3	1	0	0.000000	0.000000	0.000000	30.000000	0.000000	1.000000	12.918994
0.062500	0.002500	0.000000	4	1	0	0.000000	0.000000	0.000000	30.000000	0.000000	1.000000	12.916467
0.102500	0.002500	0.000000	5	1	0	0.000000	0.000000	0.000000	30.000000	0.000000	1.000000	12.914761
0.152500	0.002500	0.000000	6	1	0	0.000000	0.000000	0.000000	30.000000	0.000000	1.000000	12.914097
0.212500	0.002500	0.000000	7	1	0	0.000000	0.000000	0.000000	30.000000	0.000000	1.000000	12.913687
0.282500	0.002500	0.000000	8	1	0	0.000000	0.000000	0.000000	30.000000	0.000000	1.000000	12.913197
0.362500	0.002500	0.000000	9	1	0	0.000000	0.000000	0.000000	30.000000	0.000000	1.000000	12.913633
0.452500	0.002500	0.000000	10	1	0	0.000000	0.000000	0.000000	30.000000	0.000000	1.000000	12.917043
0.547500	0.002500	0.000000	11	1	0	0.000000	0.000000	0.000000	30.000000	0.000000	1.000000	12.925302
0.637500	0.002500	0.000000	12	1	0	0.000000	0.000000	0.000000	30.000000	0.000000	1.000000	12.936886
0.717500	0.002500	0.000000	13	1	0	0.000000	0.000000	0.000000	30.000000	0.000000	1.000000	12.951155
0.787500	0.002500	0.000000	14	1	0	0.000000	0.000000	0.000000	30.000000	0.000000	1.000000	12.967937
0.847500	0.002500	0.000000	15	1	0	0.000000	0.000000	0.000000	30.000000	0.000000	1.000000	12.985376
0.897500	0.002500	0.000000	16	1	0	0.000000	0.000000	0.000000	30.000000	0.000000	1.000000	12.999839
0.937500	0.002500	0.000000	17	1	0	0.000000	0.000000	0.000000	30.000000	0.000000	1.000000	13.007790
0.967500	0.002500	0.000000	18	1	0	0.000000	0.000000	0.000000	30.000000	0.000000	1.000000	13.008976
0.987500	0.002500	0.000000	19	1	0	0.000000	0.000000	0.000000	30.000000	0.000000	1.000000	13.006533
0.997500	0.002500	0.000000	20	1	0	0.000000	0.000000	0.000000	30.000000	0.000000	1.000000	13.007146
1.000000	0.002500	0.000000	21	1	0	0.000000	0.000000	0.000000	30.000000	0.000000	1.000000	0.000000
0.000000	0.012500	0.000000	0	2	0	0.000000	0.000000	0.000000	10.000000	0.000000	1.000000	0.000000
0.002500	0.012500	0.000000	1	2	0	0.000000	0.000000	0.000000	30.000000	0.094808	1.000000	12.921892
0.012500	0.012500	0.000000	2	2	0	0.000000	0.000000	0.000000	30.000000	0.000000	1.000000	12.921283
0.032500	0.012500	0.000000	3	2	0	0.000000	0.000000	0.000000	30.000000	0.000000	1.000000	12.917879
0.062500	0.012500	0.000000	4	2	0	0.000000	0.000000	0.000000	30.000000	0.000000	1.000000	12.914900
0.102500	0.012500	0.000000	5	2	0	0.000000	0.000000	0.000000	30.000000	0.000000	1.000000	12.913269
0.152500	0.012500	0.000000	6	2	0	0.000000	0.000000	0.000000	30.000000	0.000000	1.000000	12.912856
0.212500	0.012500	0.000000	7	2	0	0.000000	0.000000	0.000000	30.000000	0.000000	1.000000	12.912622
0.282500	0.012500	0.000000	8	2	0	0.000000	0.000000	0.000000	30.000000	0.000000	1.000000	12.912222
0.362500	0.012500	0.000000	9	2	0	0.000000	0.000000	0.000000	30.000000	0.000000	1.000000	12.912719
0.452500	0.012500	0.000000	10	2	0	0.000000	0.000000	0.000000	30.000000	0.000000	1.000000	12.916236
0.547500	0.012500	0.000000	11	2	0	0.000000	0.000000	0.000000	30.000000	0.000000	1.000000	12.924586
0.637500	0.012500	0.000000	12	2	0	0.000000	0.000000	0.000000	30.000000	0.000000	1.000000	12.936192
0.717500	0.012500	0.000000	13	2	0	0.000000	0.000000	0.000000	30.000000	0.000000	1.000000	12.950419
0.787500	0.012500	0.000000	14	2	0	0.000000	0.000000	0.000000	30.000000	0.000000	1.000000	12.967104
0.847500	0.012500	0.000000	15	2	0	0.000000	0.000000	0.000000	30.000000	0.000000	1.000000	12.984419
0.897500	0.012500	0.000000	16	2	0	0.000000	0.000000	0.000000	30.000000	0.000000	1.000000	12.998806
0.937500	0.012500	0.000000	17	2	0	0.000000	0.000000	0.000000	30.000000	0.000000	1.000000	13.006848
0.967500	0.012500	0.000000	18	2	0	0.000000	0.000000	0.000000	30.000000	0.000000	1.000000	13.008523
0.987500	0.012500	0.000000	19	2	0	0.000000	0.000000	0.000000	30.000000	0.000000	1.000000	13.006790
0.997500	0.012500	0.000000	20	2	0	0.000000	0.000000	0.000000	30.000000	0.000000	1.000000	13.007071
1.000000	0.012500	0.000000	21	2	0	0.000000	0.000000	0.000000	30.000000	0.000000	1.000000	0.000000
0.000000	0.032500	0.000000	0	3	0	0.000000	0.000000	0.000000	10.000000	0.000000	1.000000	0.000000
0.002500	0.032500	0.000000	1	3	0	0.000000	0.000000	0.000000	30.000000	0.095024	1.000000	12.920760
0.012500	0.032500	0.000000	2	3	0	0.000000	0.000000	0.000000	30.000000	0.000000	1.000000	12.920108
0.032500	0.032500	0.000000	3	3	0	0.000000	0.000000	0.000000	30.000000	0.000000	1.000000	12.915525
0.062500	0.032500	0.000000	4	3	0	0.000000	0.000000	0.000000	30.000000	0.000000	1.000000	12.915895
0.102500	0.032500	0.000000	5	3	0	0.000000	0.000000	0.000000	30.000000	0.000000	1.000000	12.916416
0.152500	0.032500	0.000000	6	3	0	0.000000	0.000000	0.000000	30.000000	0.000000	1.000000	12.916720
0.212500	0.032500	0.000000	7	3	0	0.000000	0.000000	0.000000	30.000000	0.000000	1.000000	12.916946
0.282500	0.032500	0.000000	8	3	0	0.000000	0.000000	0.000000	30.000000	0.000000	1.000000	12.916973
0.362500	0.032500	0.000000	9	3	0	0.000000	0.000000	0.000000	30.000000	0.000000	1.000000	12.918045
0.452500	0.032500	0.000000	10	3	0	0.000000	0.000000	0.000000	30.000000	0.000000	1.000000	12.922453
0.547500	0.032500	0.000000	11	3	0	0.000000	0.000000	0.000000	30.000000	0.000000	1.000000	12.931732
0.637500	0.032500	0.000000	12	3	0	0.000000	0.000000	0.000000	30.000000	0.000000	1.000000	12.943581
0.717500	0.032500	0.000000	13	3	0	0.000000	0.000000	0.000000	30.000000	0.000000	1.000000	12.957333
0.787500	0.032500	0.000000	14	3	0	0.000000	0.000000	0.000000	30.000000	0.000000	1.000000	12.973066
0.847500	0.032500	0.000000	15	3	0	0.000000	0.000000	0.000000	30.000000	0.000000	1.000000	12.989506
0.897500	0.032500	0.000000	16	3	0	0.000000	0.000000	0.000000	30.000000	0.000000	1.000000	13.003735
0.937500	0.032500	0.000000	17	3	0	0.000000	0.000000	0.000000	30.000000	0.000000	1.000000	13.012640
0.967500	0.032500	0.000000	18	3	0	0.000000	0.000000	0.000000	30.000000	0.000000	1.000000	13.016244
0.987500	0.032500	0.000000	19	3	0	0.000000	0.000000	0.000000	30.000000	0.000000	1.000000	13.015917
0.997500	0.032500	0.000000	20	3	0	0.000000	0.000000	0.000000	30.000000	0.000000	1.000000	13.014798
1.000000	0.032500	0.000000	21	3	0	0.000000	0.000000	0.000000	30.000000	0.000000	1.000000	0.000000
0.000000	0.062500	0.000000	0	4	0	0.000000	0.000000	0.000000	10.000000	0.000000	1.000000	0.000000
0.002500	0.062500	0.000000	1	4	0	0.000000	0.000000	0.000000	30.000000	0.093313	1.000000	12.919995
0.012500	0.062500	0.000000	2	4	0	0.000000	0.000000	0.000000	30.000000	0.000000	1.000000	12.919144
0.032500	0.062500	0.000000	3	4	0	0.000000	0.000000	0.000000	30.000000	0.000000	1.000000	12.915442
0.062500	0.062500	0.000000	4	4	0	0.000000	0.000000	0.000000	30.000000	0.000000	1.000000	12.915371
0.102500	0.062500	0.000000	5	4	0	0.000000	0.000000	0.000000	30.000000	0.000000	1.000000	12.916384
0.152500	0.062500	0.000000	6	4	0	0.000000	0.000000	0.000000	30.000000	0.000000	1.000000	12.916737
0.212500	0.062500	0.000000	7	4	0	0.000000	0.000000	0.000000	30.000000	0.000000	1.000000	12.917056
0.282500	0.062500	0.000000	8	4	0	0.000000	0.000000	0.000000	30.000000	0.000000	1.000000	12.916953
0.362500	0.062500	0.000000	9	4	0	0.000000	0.000000	0.000000	30.000000	0.000000	1.000000	12.917528
0.452500	0.062500	0.000000	10	4	0	0.000000	0.000000	0.000000	30.000000	0.000000	1.000000	12.920772
0.547500	0.062500	0.000000	11	4	0	0.000000	0.000000	0.000000	30.000000	0.000000	1.000000	12.928158
0.637500	0.062500	0.000000	12	4	0	0.000000	0.000000	0.000000	30.000000	0.000000	1.000000	12.938298
0.717500	0.062500	0.000000	13	4	0	0.000000	0.000000	0.000000	30.000000	0.000000	1.000000	12.951584
0.787500	0.062500	0.000000	14	4	0	0.000000	0.000000	0.000000	30.000000	0.000000	1.000000	12.968482
0.847500	0.062500	0.000000	15	4	0	0.000000	0.000000	0.000000	30.000000	0.000000	1.000000	12.987595
0.897500	0.062500	0.000000	16	4	0	0.000000	0.000000	0.000000	30.000000	0.000000	1.000000	13.005742
0.937500	0.062500	0.000000	17	4	0	0.000000	0.000000	0.000000	30.000000	0.000000	1.000000	13.018049
0.967500	0.062500	0.000000	18	4	0	0.000000	0.000000	0.000000	30.000000	0.000000	1.000000	13.018333
0.987500	0.062500	0.000000	19	4	0	0.000000	0.000000	0.000000	30.000000	0.000000	1.000000	13.004977
0.997500	0.062500	0.000000	20	4	0	0.000000	0.000000	0.000000	30.000000	0.000000	1.000000	13.004731
1.000000	0.062500	0.000000	21	4	0	0.000000	0.000000	0.000000	30.000000	0.000000	1.000000	0.000000
0.000000	0.102500	0.000000	0	5	0	0.000000	0.000000	0.000000	10.000000	0.000000	1.000000	0.000000
0.002500	0.102500	0.000000	1	5	0	0.000000	0.000000	0.000000	30.000000	0.091903	1.000000	12.921694
0.012500	0.102500	0.000000	2	5	0	0.000000	0.000000	0.000000	30.000000	0.000000	1.000000	12.920704
0.032500	0.102500	0.000000	3	5	0	0.000000	0.000000	0.000000	30.000000	0.000000	1.000000	12.916621
0.062500	0.102500	0.000000	4	5	0	0.000000	0.000000	0.000000	30.000000	0.000000	1.000000	12.914859
0.102500	0.102500	0.000000	5	5	0	0.000000	0.000000	0.000000	30.000000	0.000000	1.000000	12.915406
0.152500	0.102500	0.000000	6	5	0	0.000000	0.000000	0.000000	30.000000	0.000000	1.000000	12.911856
0.212500	0.102500	0.000000	7	5	0	0.000000	0.000000	0.000000	30.000000	0.000000	1.000000	12.908773
0.282500	0.102500	0.000000	8	5	0	0.000000	0.000000	0.000000	30.000000	0.000000	1.000000	12.906181
0.362500	0.102500	0.000000	9	5	0	0.000000	0.000000	0.000000	30.000000	0.000000	1.000000	12.904735
0.452500	0.102500	0.000000	10	5	0	0.000000	0.000000	0.000000	30.000000	0.000000	1.000000	12.905886
0.547500	0.102500	0.000000	11	5	0	0.000000	0.000000	0.000000	30.000000	0.000000	1.000000	12.911846
0.637500	0.102500	0.000000	12	5	0	0.000000	0.000000	0.000000	30.000000	0.000000	1.000000	12.922540
0.717500	0.102500	0.000000	13	5	0	0.000000	0.000000	0.000000	30.000000	0.000000	1.000000	12.937339
0.787500	0.102500	0.000000	14	5	0	0.000000	0.000000	0.000000	30.000000	0.000000	1.000000	12.955683
0.847500	0.102500	0.000000	15	5	0	0.000000	0.000000	0.000000	30.000000	0.000000	1.000000	12.976767
0.897500	0.102500	0.000000	16	5	0	0.000000	0.000000	0.000000	30.000000	0.000000	1.000000	12.997559
0.937500	0.102500	0.000000	17	5	0	0.000000	0.000000	0.000000	30.000000	0.000000	1.000000	13.009767
0.967500	0.102500	0.000000	18	5	0	0.000000	0.000000	0.000000	30.000000	0.000000	1.000000	12.997547
0.987500	0.102500	0.000000	19	5	0	0.000000	0.000000	0.000000	30.000000	0.000000	1.000000	12.952865
0.997500	0.102500	0.000000	20	5	0	0.000000	0.000000	0.000000	30.000000	0.000000	1.000000	12.956980
1.000000	0.102500	0.000000	21	5	0	0.000000	0.000000	0.000000	30.000000	0.000000	1.000000	0.000000
0.000000	0.152500	0.000000	0	6	0	0.000000	0.000000	0.000000	10.000000	0.000000	1.000000	0.000000
0.002500	0.152500	0.000000	1	6	0	0.000000	0.000000	0.000000	30.000000	0.091621	1.000000	12.927020
0.012500	0.152500	0.000000	2	6	0	0.000000	0.000000	0.000000	30.000000	0.000000	1.000000	12.925876
0.032500	0.152500	0.000000	3	6	0	0.000000	0.000000	0.000000	30.000000	0.000000	1.000000	12.920601
0.062500	0.152500	0.000000	4	6	0	0.000000	0.000000	0.000000	30.000000	0.000000	1.000000	12.917991
0.102500	0.152500	0.000000	5	6	0	0.000000	0.000000	0.000000	30.000000	0.000000	1.000000	12.918243
0.152500	0.152500	0.000000	6	6	0	0.000000	0.000000	0.000000	30.000000	0.000000	1.000000	12.915667
0.212500	0.152500	0.000000	7	6	0	0.000000	0.000000	0.000000	30.000000	0.000000	1.000000	12.911816
0.282500	0.152500	0.000000	8	6	0	0.000000	0.000000	0.000000	30.000000	0.000000	1.000000	12.907757
0.362500	0.152500	0.000000	9	6	0	0.000000	0.000000	0.000000	30.000000	0.000000	1.000000	12.905190
0.452500	0.152500	0.000000	10	6	0	0.000000	0.000000	0.000000	30.000000	0.000000	1.000000	12.905668
0.547500	0.152500	0.000000	11	6	0	0.000000	0.000000	0.000000	30.000000	0.000000	1.000000	12.911707
0.637500	0.152500	0.000000	12	6	0	0.000000	0.000000	0.000000	30.000000	0.000000	1.000000	12.923833
0.717500	0.152500	0.000000	13	6	0	0.000000	0.000000	0.000000	30.000000	0.000000	1.000000	12.940571
0.787500	0.152500	0.000000	14	6	0	0.000000	0.000000	0.000000	30.000000	0.000000	1.000000	12.961104
0.847500	0.152500	0.000000	15	6	0	0.000000	0.000000	0.000000	30.000000	0.000000	1.000000	12.984638
0.897500	0.152500	0.000000	16	6	0	0.000000	0.000000	0.000000	30.000000	0.000000	1.000000	13.008670
0.937500	0.152500	0.000000	17	6	0	0.000000	0.000000	0.000000	30.000000	0.000000	1.000000	13.025286
0.967500	0.152500	0.000000	18	6	0	0.000000	0.000000	0.000000	30.000000	0.000000	1.000000	13.024398
0.987500	0.152500	0.000000	19	6	0	0.000000	0.000000	0.000000	30.000000	0.000000	1.000000	13.009723
0.997500	0.152500	0.000000	20	6	0	0.000000	0.000000	0.000000	30.000000	0.000000	1.000000	13.009875
1.000000	0.152500	0.000000	21	6	0	0.000000	0.000000	0.000000	30.000000	0.000000	1.000000	0.000000
0.000000	0.212500	0.000000	0	7	0	0.000000	0.000000	0.000000	10.000000	0.000000	1.000000	0.000000
0.002500	0.212500	0.000000	1	7	0	0.000000	0.000000	0.000000	30.000000	0.091385	1.000000	12.935772
0.012500	0.212500	0.000000	2	7	0	0.000000	0.000000	0.000000	30.000000	0.000000	1.000000	12.934443
0.032500	0.212500	0.000000	3	7	0	0.000000	0.000000	0.000000	30.000000	0.000000	1.000000	12.929496
0.062500	0.212500	0.000000	4	7	0	0.000000	0.000000	0.000000	30.000000	0.000000	1.000000	12.927473
0.102500	0.212500	0.000000	5	7	0	0.000000	0.000000	0.000000	30.000000	0.000000	1.000000	12.925997
0.152500	0.212500	0.000000	6	7	0	0.000000	0.000000	0.000000	30.000000	0.000000	1.000000	12.920349
0.212500	0.212500	0.000000	7	7	0	0.000000	0.000000	0.000000	30.000000	0.000000	1.000000	12.914972
0.282500	0.212500	0.000000	8	7	0	0.000000	0.000000	0.000000	30.000000	0.000000	1.000000	12.910529
0.362500	0.212500	0.000000	9	7	0	0.000000	0.000000	0.000000	30.000000	0.000000	1.000000	12.907688
0.452500	0.212500	0.000000	10	7	0	0.000000	0.000000	0.000000	30.000000	0.000000	1.000000	12.907863
0.547500	0.212500	0.000000	11	7	0	0.000000	0.000000	0.000000	30.000000	0.000000	1.000000	12.913664
0.637500	0.212500	0.000000	12	7	0	0.000000	0.000000	0.000000	30.000000	0.000000	1.000000	12.925695
0.717500	0.212500	0.000000	13	7	0	0.000000	0.000000	0.000000	30.000000	0.000000	1.000000	12.942677
0.787500	0.212500	0.000000	14	7	0	0.000000	0.000000	0.000000	30.000000	0.000000	1.000000	12.963676
0.847500	0.212500	0.000000	15	7	0	0.000000	0.000000	0.000000	30.000000	0.000000	1.000000	12.987416
0.897500	0.212500	0.000000	16	7	0	0.000000	0.000000	0.000000	30.000000	0.000000	1.000000	13.010947
0.937500	0.212500	0.000000	17	7	0	0.000000	0.000000	0.000000	30.000000	0.000000	1.000000	13.027136
0.967500	0.212500	0.000000	18	7	0	0.000000	0.000000	0.000000	30.000000	0.000000	1.000000	13.027324
0.987500	0.212500	0.000000	19	7	0	0.000000	0.000000	0.000000	30.000000	0.000000	1.000000	13.008418
0.997500	0.212500	0.000000	20	7	0	0.000000	0.000000	0.000000	30.000000	0.000000	1.000000	13.008511
1.000000	0.212500	0.000000	21	7	0	0.000000	0.000000	0.000000	30.000000	0.000000	1.000000	0.000000
0.000000	0.282500	0.000000	0	8	0	0.000000	0.000000	0.000000	10.000000	0.000000	1.000000	0.000000
0.002500	0.282500	0.000000	1	8	0	0.000000	0.000000	0.000000	30.000000	0.092528	1.000000	12.936928
0.012500	0.282500	0.000000	2	8	0	0.000000	0.000000	0.000000	30.000000	0.000000	1.000000	12.935798
0.032500	0.282500	0.000000	3	8	0	0.000000	0.000000	0.000000	30.000000	0.000000	1.000000	12.931874
0.062500	0.282500	0.000000	4	8	0	0.000000	0.000000	0.000000	30.000000	0.000000	1.000000	12.930302
0.102500	0.282500	0.000000	5	8	0	0.000000	0.000000	0.000000	30.000000	0.000000	1.000000	12.929012
0.152500	0.282500	0.000000	6	8	0	0.000000	0.000000	0.000000	30.000000	0.000000	1.000000	12.922569
0.212500	0.282500	0.000000	7	8	0	0.000000	0.000000	0.000000	30.000000	0.000000	1.000000	12.916717
0.282500	0.282500	0.000000	8	8	0	0.000000	0.000000	0.000000	30.000000	0.000000	1.000000	12.911827
0.362500	0.282500	0.000000	9	8	0	0.000000	0.000000	0.000000	30.000000	0.000000	1.000000	12.908206
0.452500	0.282500	0.000000	10	8	0	0.000000	0.000000	0.000000	30.000000	0.000000	1.000000	12.906924
0.547500	0.282500	0.000000	11	8	0	0.000000	0.000000	0.000000	30.000000	0.000000	1.000000	12.910710
0.637500	0.282500	0.000000	12	8	0	0.000000	0.000000	0.000000	30.000000	0.000000	1.000000	12.920944
0.717500	0.282500	0.000000	13	8	0	0.000000	0.000000	0.000000	30.000000	0.000000	1.000000	12.936626
0.787500	0.282500	0.000000	14	8	0	0.000000	0.000000	0.000000	30.000000	0.000000	1.000000	12.956428
0.847500	0.282500	0.000000	15	8	0	0.000000	0.000000	0.000000	30.000000	0.000000	1.000000	12.978538
0.897500	0.282500	0.000000	16	8	0	0.000000	0.000000	0.000000	30.000000	0.000000	1.000000	12.998887
0.937500	0.282500	0.000000	17	8	0	0.000000	0.000000	0.000000	30.000000	0.000000	1.000000	13.007972
0.967500	0.282500	0.000000	18	8	0	0.000000	0.000000	0.000000	30.000000	0.000000	1.000000	12.997991
0.987500	0.282500	0.000000	19	8	0	0.000000	0.000000	0.000000	30.000000	0.000000	1.000000	12.980279
0.997500	0.282500	0.000000	20	8	0	0.000000	0.000000	0.000000	30.000000	0.000000	1.000000	12.980142
1.000000	0.282500	0.000000	21	8	0	0.000000	0.000000	0.000000	30.000000	0.000000	1.000000	0.000000
0.000000	0.362500	0.000000	0	9	0	0.000000	0.000000	0.000000	10.000000	0.000000	1.000000	0.000000
0.002500	0.362500	0.000000	1	9	0	0.000000	0.000000	0.000000	30.000000	0.097795	1.000000	12.939214
0.012500	0.362500	0.000000	2	9	0	0.000000	0.000000	0.000000	30.000000	0.000000	1.000000	12.938663
0.032500	0.362500	0.000000	3	9	0	0.000000	0.000000	0.000000	30.000000	0.000000	1.000000	12.935731
0.062500	0.362500	0.000000	4	9	0	0.000000	0.000000	0.000000	30.000000	0.000000	1.000000	12.931166
0.102500	0.362500	0.000000	5	9	0	0.000000	0.000000	0.000000	30.000000	0.000000	1.000000	12.926743
0.152500	0.362500	0.000000	6	9	0	0.000000	0.000000	0.000000	30.000000	0.000000	1.000000	12.919775
0.212500	0.362500	0.000000	7	9	0	0.000000	0.000000	0.000000	30.000000	0.000000	1.000000	12.912868
0.282500	0.362500	0.000000	8	9	0	0.000000	0.000000	0.000000	30.000000	0.000000	1.000000	12.907058
0.362500	0.362500	0.000000	9	9	0	0.000000	0.000000	0.000000	30.000000	0.000000	1.000000	12.903126
0.452500	0.362500	0.000000	10	9	0	0.000000	0.000000	0.000000	30.000000	0.000000	1.000000	12.902058
0.547500	0.362500	0.000000	11	9	0	0.000000	0.000000	0.000000	30.000000	0.000000	1.000000	12.905909
0.637500	0.362500	0.000000	12	9	0	0.000000	0.000000	0.000000	30.000000	0.000000	1.000000	12.915457
0.717500	0.362500	0.000000	13	9	0	0.000000	0.000000	0.000000	30.000000	0.000000	1.000000	12.928782
0.787500	0.362500	0.000000	14	9	0	0.000000	0.000000	0.000000	30.000000	0.000000	1.000000	12.943103
0.847500	0.362500	0.000000	15	9	0	0.000000	0.000000	0.000000	30.000000	0.000000	1.000000	12.955613
0.897500	0.362500	0.000000	16	9	0	0.000000	0.000000	0.000000	30.000000	0.000000	1.000000	12.964200
0.937500	0.362500	0.000000	17	9	0	0.000000	0.000000	0.000000	30.000000	0.000000	1.000000	12.968272
0.967500	0.362500	0.000000	18	9	0	0.000000	0.000000	0.000000	30.000000	0.000000	1.000000	12.969321
0.987500	0.362500	0.000000	19	9	0	0.000000	0.000000	0.000000	30.000000	0.000000	1.000000	12.969763
0.997500	0.362500	0.000000	20	9	0	0.000000	0.000000	0.000000	30.000000	0.000000	1.000000	12.969716
1.000000	0.362500	0.000000	21	9	0	0.000000	0.000000	0.000000	30.000000	0.000000	1.000000	0.000000
0.000000	0.452500	0.000000	0	10	0	0.000000	0.000000	0.000000	10.000000	0.000000	1.000000	0.000000
0.002500	0.452500	0.000000	1	10	0	0.000000	0.000000	0.000000	30.000000	0.093406	1.000000	12.942752
0.012500	0.452500	0.000000	2	10	0	0.000000	0.000000	0.000000	30.000000	0.000000	1.000000	12.941744
0.032500	0.452500	0.000000	3	10	0	0.000000	0.000000	0.000000	30.000000	0.000000	1.000000	12.937629
0.062500	0.452500	0.000000	4	10	0	0.000000	0.000000	0.000000	30.000000	0.000000	1.000000	12.935851
0.102500	0.452500	0.000000	5	10	0	0.000000	0.000000	0.000000	30.000000	0.000000	1.000000	12.934523
0.152500	0.452500	0.000000	6	10	0	0.000000	0.000000	0.000000	30.000000	0.000000	1.000000	12.927396
0.212500	0.452500	0.000000	7	10	0	0.000000	0.000000	0.000000	30.000000	0.000000	1.000000	12.921540
0.282500	0.452500	0.000000	8	10	0	0.000000	0.000000	0.000000	30.000000	0.000000	1.000000	12.917143
0.362500	0.452500	0.000000	9	10	0	0.000000	0.000000	0.000000	30.000000	0.000000	1.000000	12.914441
0.452500	0.452500	0.000000	10	10	0	0.000000	0.000000	0.000000	30.000000	0.000000	1.000000	12.914917
0.547500	0.452500	0.000000	11	10	0	0.000000	0.000000	0.000000	30.000000	0.000000	1.000000	12.921394
0.637500	0.452500	0.000000	12	10	0	0.000000	0.000000	0.000000	30.000000	0.000000	1.000000	12.934477
0.717500	0.452500	0.000000	13	10	0	0.000000	0.000000	0.000000	30.000000	0.000000	1.000000	12.951153
0.787500	0.452500	0.000000	14	10	0	0.000000	0.000000	0.000000	30.000000	0.000000	1.000000	12.968017
0.847500	0.452500	0.000000	15	10	0	0.000000	0.000000	0.000000	30.000000	0.000000	1.000000	12.982767
0.897500	0.452500	0.000000	16	10	0	0.000000	0.000000	0.000000	30.000000	0.000000	1.000000	12.993962
0.937500	0.452500	0.000000	17	10	0	0.000000	0.000000	0.000000	30.000000	0.000000	1.000000	13.001164
0.967500	0.452500	0.000000	18	10	0	0.000000	0.000000	0.000000	30.000000	0.000000	1.000000	13.005351
0.987500	0.452500	0.000000	19	10	0	0.000000	0.000000	0.000000	30.000000	0.000000	1.000000	13.008136
0.997500	0.452500	0.000000	20	10	0	0.000000	0.000000	0.000000	30.000000	0.000000	1.000000	13.007284
1.000000	0.452500	0.000000	21	10	0	0.000000	0.000000	0.000000	30.000000	0.000000	1.000000	0.000000
0.000000	0.547500	0.000000	0	11	0	0.000000	0.000000	0.000000	10.000000	0.000000	1.000000	0.000000
0.002500	0.547500	0.000000	1	11	0	0.000000	0.000000	0.000000	30.000000	0.093474	1.000000	12.952536
0.012500	0.547500	0.000000	2	11	0	0.000000	0.000000	0.000000	30.000000	0.000000	1.000000	12.951387
0.032500	0.547500	0.000000	3	11	0	0.000000	0.000000	0.000000	30.000000	0.000000	1.000000	12.945795
0.062500	0.547500	0.000000	4	11	0	0.000000	0.000000	0.000000	30.000000	0.000000	1.000000	12.942402
0.102500	0.547500	0.000000	5	11	0	0.000000	0.000000	0.000000	30.000000	0.000000	1.000000	12.941153
0.152500	0.547500	0.000000	6	11	0	0.000000	0.000000	0.000000	30.000000	0.000000	1.000000	12.932577
0.212500	0.547500	0.000000	7	11	0	0.000000	0.000000	0.000000	30.000000	0.000000	1.000000	12.924282
0.282500	0.547500	0.000000	8	11	0	0.000000	0.000000	0.000000	30.000000	0.000000	1.000000	12.917892
0.362500	0.547500	0.000000	9	11	0	0.000000	0.000000	0.000000	30.000000	0.000000	1.000000	12.914138
0.452500	0.547500	0.000000	10	11	0	0.000000	0.000000	0.000000	30.000000	0.000000	1.000000	12.914421
0.547500	0.547500	0.000000	11	11	0	0.000000	0.000000	0.000000	30.000000	0.000000	1.000000	12.921000
0.637500	0.547500	0.000000	12	11	0	0.000000	0.000000	0.000000	30.000000	0.000000	1.000000	12.934311
0.717500	0.547500	0.000000	13	11	0	0.000000	0.000000	0.000000	30.000000	0.000000	1.000000	12.952408
0.787500	0.547500	0.000000	14	11	0	0.000000	0.000000	0.000000	30.000000	0.000000	1.000000	12.972945
0.847500	0.547500	0.000000	15	11	0	0.000000	0.000000	0.000000	30.000000	0.000000	1.000000	12.993699
0.897500	0.547500	0.000000	16	11	0	0.000000	0.000000	0.000000	30.000000	0.000000	1.000000	13.012562
0.937500	0.547500	0.000000	17	11	0	0.000000	0.000000	0.000000	30.000000	0.000000	1.000000	13.026098
0.967500	0.547500	0.000000	18	11	0	0.000000	0.000000	0.000000	30.000000	0.000000	1.000000	13.029706
0.987500	0.547500	0.000000	19	11	0	0.000000	0.000000	0.000000	30.000000	0.000000	1.000000	13.024358
0.997500	0.547500	0.000000	20	11	0	0.000000	0.000000	0.000000	30.000000	0.000000	1.000000	13.025445
1.000000	0.547500	0.000000	21	11	0	0.000000	0.000000	0.000000	30.000000	0.000000	1.000000	0.000000
0.000000	0.637500	0.000000	0	12	0	0.000000	0.000000	0.000000	10.000000	0.000000	1.000000	0.000000
0.002500	0.637500	0.000000	1	12	0	0.000000	0.000000	0.000000	30.000000	0.092939	1.000000	12.960295
0.012500	0.637500	0.000000	2	12	0	0.000000	0.000000	0.000000	30.000000	0.000000	1.000000	12.958978
0.032500	0.637500	0.000000	3	12	0	0.000000	0.000000	0.000000	30.000000	0.000000	1.000000	12.952515
0.062500	0.637500	0.000000	4	12	0	0.000000	0.000000	0.000000	30.000000	0.000000	1.000000	12.947214
0.102500	0.637500	0.000000	5	12	0	0.000000	0.000000	0.000000	30.000000	0.000000	1.000000	12.945179
0.152500	0.637500	0.000000	6	12	0	0.000000	0.000000	0.000000	30.000000	0.000000	1.000000	12.936390
0.212500	0.637500	0.000000	7	12	0	0.000000	0.000000	0.000000	30.000000	0.000000	1.000000	12.927216
0.282500	0.637500	0.000000	8	12	0	0.000000	0.000000	0.000000	30.000000	0.000000	1.000000	12.919567
0.362500	0.637500	0.000000	9	12	0	0.000000	0.000000	0.000000	30.000000	0.000000	1.000000	12.915055
0.452500	0.637500	0.000000	10	12	0	0.000000	0.000000	0.000000	30.000000	0.000000	1.000000	12.914946
0.547500	0.637500	0.000000	11	12	0	0.000000	0.000000	0.000000	30.000000	0.000000	1.000000	12.920448
0.637500	0.637500	0.000000	12	12	0	0.000000	0.000000	0.000000	30.000000	0.000000	1.000000	12.931686
0.717500	0.637500	0.000000	13	12	0	0.000000	0.000000	0.000000	30.000000	0.000000	1.000000	12.948527
0.787500	0.637500	0.000000	14	12	0	0.000000	0.000000	0.000000	30.000000	0.000000	1.000000	12.970717
0.847500	0.637500	0.000000	15	12	0	0.000000	0.000000	0.000000	30.000000	0.000000	1.000000	12.996565
0.897500	0.637500	0.000000	16	12	0	0.000000	0.000000	0.000000	30.000000	0.000000	1.000000	13.021997
0.937500	0.637500	0.000000	17	12	0	0.000000	0.000000	0.000000	30.000000	0.000000	1.000000	13.040009
0.967500	0.637500	0.000000	18	12	0	0.000000	0.000000	0.000000	30.000000	0.000000	1.000000	13.041420
0.987500	0.637500	0.000000	19	12	0	0.000000	0.000000	0.000000	30.000000	0.000000	1.000000	13.023282
0.997500	0.637500	0.000000	20	12	0	0.000000	0.000000	0.000000	30.000000	0.000000	1.000000	13.023617
1.000000	0.637500	0.000000	21	12	0	0.000000	0.000000	0.000000	30.000000	0.000000	1.000000	0.000000
0.000000	0.717500	0.000000	0	13	0	0.000000	0.000000	0.000000	10.000000	0.000000	1.000000	0.000000
0.002500	0.717500	0.000000	1	13	0	0.000000	0.000000	0.000000	30.000000	0.092162	1.000000	12.953528
0.012500	0.717500	0.000000	2	13	0	0.000000	0.000000	0.000000	30.000000	0.000000	1.000000	12.952386
0.032500	0.717500	0.000000	3	13	0	0.000000	0.000000	0.000000	30.000000	0.000000	1.000000	12.946917
0.062500	0.717500	0.000000	4	13	0	0.000000	0.000000	0.000000	30.000000	0.000000	1.000000	12.944419
0.102500	0.717500	0.000000	5	13	0	0.000000	0.000000	0.000000	30.000000	0.000000	1.000000	12.943713
0.152500	0.717500	0.000000	6	13	0	0.000000	0.000000	0.000000	30.000000	0.000000	1.000000	12.936885
0.212500	0.717500	0.000000	7	13	0	0.000000	0.000000	0.000000	30.000000	0.000000	1.000000	12.927927
0.282500	0.717500	0.000000	8	13	0	0.000000	0.000000	0.000000	30.000000	0.000000	1.000000	12.920197
0.362500	0.717500	0.000000	9	13	0	0.000000	0.000000	0.000000	30.000000	0.000000	1.000000	12.916132
0.452500	0.717500	0.000000	10	13	0	0.000000	0.000000	0.000000	30.000000	0.000000	1.000000	12.917057
0.547500	0.717500	0.000000	11	13	0	0.000000	0.000000	0.000000	30.000000	0.000000	1.000000	12.922989
0.637500	0.717500	0.000000	12	13	0	0.000000	0.000000	0.000000	30.000000	0.000000	1.000000	12.932994
0.717500	0.717500	0.000000	13	13	0	0.000000	0.000000	0.000000	30.000000	0.000000	1.000000	12.947952
0.787500	0.717500	0.000000	14	13	0	0.000000	0.000000	0.000000	30.000000	0.000000	1.000000	12.969493
0.847500	0.717500	0.000000	15	13	0	0.000000	0.000000	0.000000	30.000000	0.000000	1.000000	12.996860