TITLE = "dt=0.100000s, t=1830.000000s, nu=0.000016, Lx=1.000000, Ly=1.000000, Lz=1.000000, Nx=12, Ny=12, Nz=12 "
VARIABLES =X, Y, Z, I, J, K, U, V, W, T, Xi, FlagP, P 
ZONE F=POINT, I=12, J=12, K=12
0.000000	0.000000	0.000000	0	0	0	0.000000	0.000000	0.000000	-13.425451	0.000000	1.000000	0.000000
0.050000	0.000000	0.000000	1	0	0	0.000000	0.000000	0.000000	-13.425441	0.000000	1.000000	0.000000
0.150000	0.000000	0.000000	2	0	0	0.000000	0.000000	0.000000	-13.425441	0.000000	1.000000	0.000000
0.250000	0.000000	0.000000	3	0	0	0.000000	0.000000	0.000000	-13.425441	0.000000	1.000000	0.000000
0.350000	0.000000	0.000000	4	0	0	0.000000	0.000000	0.000000	-13.425441	0.000000	1.000000	0.000000
0.450000	0.000000	0.000000	5	0	0	0.000000	0.000000	0.000000	-13.425441	0.000000	1.000000	0.000000
0.550000	0.000000	0.000000	6	0	0	0.000000	0.000000	0.000000	-13.425441	0.000000	1.000000	0.000000
0.650000	0.000000	0.000000	7	0	0	0.000000	0.000000	0.000000	-13.425441	0.000000	1.000000	0.000000
0.750000	0.000000	0.000000	8	0	0	0.000000	0.000000	0.000000	-13.425441	0.000000	1.000000	0.000000
0.850000	0.000000	0.000000	9	0	0	0.000000	0.000000	0.000000	-13.425441	0.000000	1.000000	0.000000
0.950000	0.000000	0.000000	10	0	0	0.000000	0.000000	0.000000	-13.425441	0.000000	1.000000	0.000000
1.000000	0.000000	0.000000	11	0	0	0.000000	0.000000	0.000000	-13.426373	0.000000	1.000000	0.000000
0.000000	0.050000	0.000000	0	1	0	0.000000	0.000000	0.000000	-13.425456	0.000000	1.000000	0.000000
0.050000	0.050000	0.000000	1	1	0	0.000000	0.000000	0.000000	-12.529377	0.000000	1.000000	0.551127
0.150000	0.050000	0.000000	2	1	0	0.000000	0.000000	0.000000	-12.529377	0.000000	1.000000	0.550893
0.250000	0.050000	0.000000	3	1	0	0.000000	0.000000	0.000000	-12.529377	0.000000	1.000000	0.550248
0.350000	0.050000	0.000000	4	1	0	0.000000	0.000000	0.000000	-12.529377	0.000000	1.000000	0.549813
0.450000	0.050000	0.000000	5	1	0	0.000000	0.000000	0.000000	-12.529377	0.000000	1.000000	0.549550
0.550000	0.050000	0.000000	6	1	0	0.000000	0.000000	0.000000	-12.529377	0.000000	1.000000	0.549395
0.650000	0.050000	0.000000	7	1	0	0.000000	0.000000	0.000000	-12.529377	0.000000	1.000000	0.549283
0.750000	0.050000	0.000000	8	1	0	0.000000	0.000000	0.000000	-12.529377	0.000000	1.000000	0.549132
0.850000	0.050000	0.000000	9	1	0	0.000000	0.000000	0.000000	-12.529377	0.000000	1.000000	0.548942
0.950000	0.050000	0.000000	10	1	0	0.000000	0.000000	0.000000	-12.529377	0.000000	1.000000	0.549067
1.000000	0.050000	0.000000	11	1	0	0.000000	0.000000	0.000000	-13.426839	0.000000	1.000000	0.000000
0.000000	0.150000	0.000000	0	2	0	0.000000	0.000000	0.000000	-13.425456	0.000000	1.000000	0.000000
0.050000	0.150000	0.000000	1	2	0	0.000000	0.000000	0.000000	-12.529377	0.000000	1.000000	0.550956
0.150000	0.150000	0.000000	2	2	0	0.000000	0.000000	0.000000	-12.529377	0.000000	1.000000	0.550778
0.250000	0.150000	0.000000	3	2	0	0.000000	0.000000	0.000000	-12.529377	0.000000	1.000000	0.550182
0.350000	0.150000	0.000000	4	2	0	0.000000	0.000000	0.000000	-12.529377	0.000000	1.000000	0.549783
0.450000	0.150000	0.000000	5	2	0	0.000000	0.000000	0.000000	-12.529377	0.000000	1.000000	0.549537
0.550000	0.150000	0.000000	6	2	0	0.000000	0.000000	0.000000	-12.529377	0.000000	1.000000	0.549387
0.650000	0.150000	0.000000	7	2	0	0.000000	0.000000	0.000000	-12.529377	0.000000	1.000000	0.549282
0.750000	0.150000	0.000000	8	2	0	0.000000	0.000000	0.000000	-12.529377	0.000000	1.000000	0.549156
0.850000	0.150000	0.000000	9	2	0	0.000000	0.000000	0.000000	-12.529377	0.000000	1.000000	0.549026
0.950000	0.150000	0.000000	10	2	0	0.000000	0.000000	0.000000	-12.529377	0.000000	1.000000	0.549169
1.000000	0.150000	0.000000	11	2	0	0.000000	0.000000	0.000000	-13.426839	0.000000	1.000000	0.000000
0.000000	0.250000	0.000000	0	3	0	0.000000	0.000000	0.000000	-13.425456	0.000000	1.000000	0.000000
0.050000	0.250000	0.000000	1	3	0	0.000000	0.000000	0.000000	-12.529377	0.000000	1.000000	0.550407
0.150000	0.250000	0.000000	2	3	0	0.000000	0.000000	0.000000	-12.529377	0.000000	1.000000	0.550307
0.250000	0.250000	0.000000	3	3	0	0.000000	0.000000	0.000000	-12.529377	0.000000	1.000000	0.549823
0.350000	0.250000	0.000000	4	3	0	0.000000	0.000000	0.000000	-12.529377	0.000000	1.000000	0.549514
0.450000	0.250000	0.000000	5	3	0	0.000000	0.000000	0.000000	-12.529377	0.000000	1.000000	0.549328
0.550000	0.250000	0.000000	6	3	0	0.000000	0.000000	0.000000	-12.529377	0.000000	1.000000	0.549212
0.650000	0.250000	0.000000	7	3	0	0.000000	0.000000	0.000000	-12.529377	0.000000	1.000000	0.549129
0.750000	0.250000	0.000000	8	3	0	0.000000	0.000000	0.000000	-12.529377	0.000000	1.000000	0.549054
0.850000	0.250000	0.000000	9	3	0	0.000000	0.000000	0.000000	-12.529377	0.000000	1.000000	0.549044
0.950000	0.250000	0.000000	10	3	0	0.000000	0.000000	0.000000	-12.529377	0.000000	1.000000	0.549262
1.000000	0.250000	0.000000	11	3	0	0.000000	0.000000	0.000000	-13.426839	0.000000	1.000000	0.000000
0.000000	0.350000	0.000000	0	4	0	0.000000	0.000000	0.000000	-13.425456	0.000000	1.000000	0.000000
0.050000	0.350000	0.000000	1	4	0	0.000000	0.000000	0.000000	-12.529377	0.000000	1.000000	0.549929
0.150000	0.350000	0.000000	2	4	0	0.000000	0.000000	0.000000	-12.529377	0.000000	1.000000	0.549894
0.250000	0.350000	0.000000	3	4	0	0.000000	0.000000	0.000000	-12.529377	0.000000	1.000000	0.549541
0.350000	0.350000	0.000000	4	4	0	0.000000	0.000000	0.000000	-12.529377	0.000000	1.000000	0.549330
0.450000	0.350000	0.000000	5	4	0	0.000000	0.000000	0.000000	-12.529377	0.000000	1.000000	0.549204
0.550000	0.350000	0.000000	6	4	0	0.000000	0.000000	0.000000	-12.529377	0.000000	1.000000	0.549121
0.650000	0.350000	0.000000	7	4	0	0.000000	0.000000	0.000000	-12.529377	0.000000	1.000000	0.549059
0.750000	0.350000	0.000000	8	4	0	0.000000	0.000000	0.000000	-12.529377	0.000000	1.000000	0.549031
0.850000	0.350000	0.000000	9	4	0	0.000000	0.000000	0.000000	-12.529377	0.000000	1.000000	0.549098
0.950000	0.350000	0.000000	10	4	0	0.000000	0.000000	0.000000	-12.529377	0.000000	1.000000	0.549359
1.000000	0.350000	0.000000	11	4	0	0.000000	0.000000	0.000000	-13.426839	0.000000	1.000000	0.000000
0.000000	0.450000	0.000000	0	5	0	0.000000	0.000000	0.000000	-13.425456	0.000000	1.000000	0.000000
0.050000	0.450000	0.000000	1	5	0	0.000000	0.000000	0.000000	-12.529377	0.000000	1.000000	0.549601
0.150000	0.450000	0.000000	2	5	0	0.000000	0.000000	0.000000	-12.529377	0.000000	1.000000	0.549599
0.250000	0.450000	0.000000	3	5	0	0.000000	0.000000	0.000000	-12.529377	0.000000	1.000000	0.549348
0.350000	0.450000	0.000000	4	5	0	0.000000	0.000000	0.000000	-12.529377	0.000000	1.000000	0.549214
0.450000	0.450000	0.000000	5	5	0	0.000000	0.000000	0.000000	-12.529377	0.000000	1.000000	0.549136
0.550000	0.450000	0.000000	6	5	0	0.000000	0.000000	0.000000	-12.529377	0.000000	1.000000	0.549083
0.650000	0.450000	0.000000	7	5	0	0.000000	0.000000	0.000000	-12.529377	0.000000	1.000000	0.549049
0.750000	0.450000	0.000000	8	5	0	0.000000	0.000000	0.000000	-12.529377	0.000000	1.000000	0.549064
0.850000	0.450000	0.000000	9	5	0	0.000000	0.000000	0.000000	-12.529377	0.000000	1.000000	0.549185
0.950000	0.450000	0.000000	10	5	0	0.000000	0.000000	0.000000	-12.529377	0.000000	1.000000	0.549457
1.000000	0.450000	0.000000	11	5	0	0.000000	0.000000	0.000000	-13.426839	0.000000	1.000000	0.000000
0.000000	0.550000	0.000000	0	6	0	0.000000	0.000000	0.000000	-13.425456	0.000000	1.000000	0.000000
0.050000	0.550000	0.000000	1	6	0	0.000000	0.000000	0.000000	-12.529377	0.000000	1.000000	0.549404
0.150000	0.550000	0.000000	2	6	0	0.000000	0.000000	0.000000	-12.529377	0.000000	1.000000	0.549411
0.250000	0.550000	0.000000	3	6	0	0.000000	0.000000	0.000000	-12.529377	0.000000	1.000000	0.549225
0.350000	0.550000	0.000000	4	6	0	0.000000	0.000000	0.000000	-12.529377	0.000000	1.000000	0.549138
0.450000	0.550000	0.000000	5	6	0	0.000000	0.000000	0.000000	-12.529377	0.000000	1.000000	0.549095
0.550000	0.550000	0.000000	6	6	0	0.000000	0.000000	0.000000	-12.529377	0.000000	1.000000	0.549073
0.650000	0.550000	0.000000	7	6	0	0.000000	0.000000	0.000000	-12.529377	0.000000	1.000000	0.549076
0.750000	0.550000	0.000000	8	6	0	0.000000	0.000000	0.000000	-12.529377	0.000000	1.000000	0.549133
0.850000	0.550000	0.000000	9	6	0	0.000000	0.000000	0.000000	-12.529377	0.000000	1.000000	0.549293
0.950000	0.550000	0.000000	10	6	0	0.000000	0.000000	0.000000	-12.529377	0.000000	1.000000	0.549553
1.000000	0.550000	0.000000	11	6	0	0.000000	0.000000	0.000000	-13.426839	0.000000	1.000000	0.000000
0.000000	0.650000	0.000000	0	7	0	0.000000	0.000000	0.000000	-13.425456	0.000000	1.000000	0.000000
0.050000	0.650000	0.000000	1	7	0	0.000000	0.000000	0.000000	-12.529377	0.000000	1.000000	0.549288
0.150000	0.650000	0.000000	2	7	0	0.000000	0.000000	0.000000	-12.529377	0.000000	1.000000	0.549297
0.250000	0.650000	0.000000	3	7	0	0.000000	0.000000	0.000000	-12.529377	0.000000	1.000000	0.549147
0.350000	0.650000	0.000000	4	7	0	0.000000	0.000000	0.000000	-12.529377	0.000000	1.000000	0.549085
0.450000	0.650000	0.000000	5	7	0	0.000000	0.000000	0.000000	-12.529377	0.000000	1.000000	0.549067
0.550000	0.650000	0.000000	6	7	0	0.000000	0.000000	0.000000	-12.529377	0.000000	1.000000	0.549080
0.650000	0.650000	0.000000	7	7	0	0.000000	0.000000	0.000000	-12.529377	0.000000	1.000000	0.549128
0.750000	0.650000	0.000000	8	7	0	0.000000	0.000000	0.000000	-12.529377	0.000000	1.000000	0.549234
0.850000	0.650000	0.000000	9	7	0	0.000000	0.000000	0.000000	-12.529377	0.000000	1.000000	0.549426
0.950000	0.650000	0.000000	10	7	0	0.000000	0.000000	0.000000	-12.529377	0.000000	1.000000	0.549655
1.000000	0.650000	0.000000	11	7	0	0.000000	0.000000	0.000000	-13.426839	0.000000	1.000000	0.000000
0.000000	0.750000	0.000000	0	8	0	0.000000	0.000000	0.000000	-13.425456	0.000000	1.000000	0.000000
0.050000	0.750000	0.000000	1	8	0	0.000000	0.000000	0.000000	-12.529377	0.000000	1.000000	0.549195
0.150000	0.750000	0.000000	2	8	0	0.000000	0.000000	0.000000	-12.529377	0.000000	1.000000	0.549211
0.250000	0.750000	0.000000	3	8	0	0.000000	0.000000	0.000000	-12.529377	0.000000	1.000000	0.549087
0.350000	0.750000	0.000000	4	8	0	0.000000	0.000000	0.000000	-12.529377	0.000000	1.000000	0.549051
0.450000	0.750000	0.000000	5	8	0	0.000000	0.000000	0.000000	-12.529377	0.000000	1.000000	0.549067
0.550000	0.750000	0.000000	6	8	0	0.000000	0.000000	0.000000	-12.529377	0.000000	1.000000	0.549120
0.650000	0.750000	0.000000	7	8	0	0.000000	0.000000	0.000000	-12.529377	0.000000	1.000000	0.549216
0.750000	0.750000	0.000000	8	8	0	0.000000	0.000000	0.000000	-12.529377	0.000000	1.000000	0.549376
0.850000	0.750000	0.000000	9	8	0	0.000000	0.000000	0.000000	-12.529377	0.000000	1.000000	0.549599
0.950000	0.750000	0.000000	10	8	0	0.000000	0.000000	0.000000	-12.529377	0.000000	1.000000	0.549764
1.000000	0.750000	0.000000	11	8	0	0.000000	0.000000	0.000000	-13.426839	0.000000	1.000000	0.000000
0.000000	0.850000	0.000000	0	9	0	0.000000	0.000000	0.000000	-13.425456	0.000000	1.000000	0.000000
0.050000	0.850000	0.000000	1	9	0	0.000000	0.000000	0.000000	-12.529377	0.000000	1.000000	0.549037
0.150000	0.850000	0.000000	2	9	0	0.000000	0.000000	0.000000	-12.529377	0.000000	1.000000	0.549099
0.250000	0.850000	0.000000	3	9	0	0.000000	0.000000	0.000000	-12.529377	0.000000	1.000000	0.549054
0.350000	0.850000	0.000000	4	9	0	0.000000	0.000000	0.000000	-12.529377	0.000000	1.000000	0.549071
0.450000	0.850000	0.000000	5	9	0	0.000000	0.000000	0.000000	-12.529377	0.000000	1.000000	0.549131
0.550000	0.850000	0.000000	6	9	0	0.000000	0.000000	0.000000	-12.529377	0.000000	1.000000	0.549227
0.650000	0.850000	0.000000	7	9	0	0.000000	0.000000	0.000000	-12.529377	0.000000	1.000000	0.549366
0.750000	0.850000	0.000000	8	9	0	0.000000	0.000000	0.000000	-12.529377	0.000000	1.000000	0.549561
0.850000	0.850000	0.000000	9	9	0	0.000000	0.000000	0.000000	-12.529377	0.000000	1.000000	0.549741
0.950000	0.850000	0.000000	10	9	0	0.000000	0.000000	0.000000	-12.529377	0.000000	1.000000	0.549728
1.000000	0.850000	0.000000	11	9	0	0.000000	0.000000	0.000000	-13.426839	0.000000	1.000000	0.000000
0.000000	0.950000	0.000000	0	10	0	0.000000	0.000000	0.000000	-13.425456	0.000000	1.000000	0.000000
0.050000	0.950000	0.000000	1	10	0	0.000000	0.000000	0.000000	-12.529377	0.000000	1.000000	0.548997
0.150000	0.950000	0.000000	2	10	0	0.000000	0.000000	0.000000	-12.529377	0.000000	1.000000	0.549096
0.250000	0.950000	0.000000	3	10	0	0.000000	0.000000	0.000000	-12.529377	0.000000	1.000000	0.549155
0.350000	0.950000	0.000000	4	10	0	0.000000	0.000000	0.000000	-12.529377	0.000000	1.000000	0.549225
0.450000	0.950000	0.000000	5	10	0	0.000000	0.000000	0.000000	-12.529377	0.000000	1.000000	0.549313
0.550000	0.950000	0.000000	6	10	0	0.000000	0.000000	0.000000	-12.529377	0.000000	1.000000	0.549417
0.650000	0.950000	0.000000	7	10	0	0.000000	0.000000	0.000000	-12.529377	0.000000	1.000000	0.549546
0.750000	0.950000	0.000000	8	10	0	0.000000	0.000000	0.000000	-12.529377	0.000000	1.000000	0.549690
0.850000	0.950000	0.000000	9	10	0	0.000000	0.000000	0.000000	-12.529377	0.000000	1.000000	0.549720
0.950000	0.950000	0.000000	10	10	0	0.000000	0.000000	0.000000	-12.529377	0.000000	1.000000	0.549819
1.000000	0.950000	0.000000	11	10	0	0.000000	0.000000	0.000000	-13.426839	0.000000	1.000000	0.000000
0.000000	1.000000	0.000000	0	11	0	0.000000	0.000000	0.000000	-13.425882	0.000000	1.000000	0.000000
0.050000	1.000000	0.000000	1	11	0	0.000000	0.000000	0.000000	-13.426733	0.000000	1.000000	0.000000
0.150000	1.000000	0.000000	2	11	0	0.000000	0.000000	0.000000	-13.426733	0.000000	1.000000	0.000000
0.250000	1.000000	0.000000	3	11	0	0.000000	0.000000	0.000000	-13.426733	0.000000	1.000000	0.000000
0.350000	1.000000	0.000000	4	11	0	0.000000	0.000000	0.000000	-13.426733	0.000000	1.000000	0.000000
0.450000	1.000000	0.000000	5	11	0	0.000000	0.000000	0.000000	-13.426733	0.000000	1.000000	0.000000
0.550000	1.000000	0.000000	6	11	0	0.000000	0.000000	0.000000	-13.426733	0.000000	1.000000	0.000000
0.650000	1.000000	0.000000	7	11	0	0.000000	0.000000	0.000000	-13.426733	0.000000	1.000000	0.000000
0.750000	1.000000	0.000000	8	11	0	0.000000	0.000000	0.000000	-13.426733	0.000000	1.000000	0.000000
0.850000	1.000000	0.000000	9	11	0	0.000000	0.000000	0.000000	-13.426733	0.000000	1.000000	0.000000
0.950000	1.000000	0.000000	10	11	0	0.000000	0.000000	0.000000	-13.426733	0.000000	1.000000	0.000000
1.000000	1.000000	0.000000	11	11	0	0.000000	0.000000	0.000000	-13.426803	0.000000	1.000000	0.000000
0.000000	0.000000	0.050000	0	0	1	0.000000	0.000000	0.000000	-13.425456	0.000000	1.000000	0.000000
0.050000	0.000000	0.050000	1	0	1	0.000000	0.000000	0.000000	-13.425441	0.000000	1.000000	0.551127
0.150000	0.000000	0.050000	2	0	1	0.000000	0.000000	0.000000	-13.425441	0.000000	1.000000	0.550893
0.250000	0.000000	0.050000	3	0	1	0.000000	0.000000	0.000000	-13.425441	0.000000	1.000000	0.550248
0.350000	0.000000	0.050000	4	0	1	0.000000	0.000000	0.000000	-13.425441	0.000000	1.000000	0.549813
0.450000	0.000000	0.050000	5	0	1	0.000000	0.000000	0.000000	-13.425441	0.000000	1.000000	0.549550
0.550000	0.000000	0.050000	6	0	1	0.000000	0.000000	0.000000	-13.425441	0.000000	1.000000	0.549395
0.650000	0.000000	0.050000	7	0	1	0.000000	0.000000	0.000000	-13.425441	0.000000	1.000000	0.549283
0.750000	0.000000	0.050000	8	0	1	0.000000	0.000000	0.000000	-13.425441	0.000000	1.000000	0.549132
0.850000	0.000000	0.050000	9	0	1	0.000000	0.000000	0.000000	-13.425441	0.000000	1.000000	0.548942
0.950000	0.000000	0.050000	10	0	1	0.000000	0.000000	0.000000	-13.425441	0.000000	1.000000	0.549067
1.000000	0.000000	0.050000	11	0	1	0.000000	0.000000	0.000000	-13.426839	0.000000	1.000000	0.000000
0.000000	0.050000	0.050000	0	1	1	0.000000	0.000000	0.000000	-13.425456	0.000000	1.000000	0.551127
0.050000	0.050000	0.050000	1	1	1	0.011125	0.007860	-0.018985	-13.445569	0.000000	-1.000000	0.551127
0.150000	0.050000	0.050000	2	1	1	0.027929	0.008142	-0.013821	-13.433469	0.000000	-1.000000	0.550893
0.250000	0.050000	0.050000	3	1	1	0.035844	0.008233	-0.010469	-13.419937	0.000000	-1.000000	0.550248
0.350000	0.050000	0.050000	4	1	1	0.038227	0.008100	-0.008247	-13.406669	0.000000	-1.000000	0.549813
0.450000	0.050000	0.050000	5	1	1	0.037359	0.007853	-0.006839	-13.393999	0.000000	-1.000000	0.549550
0.550000	0.050000	0.050000	6	1	1	0.034872	0.007535	-0.006061	-13.382109	0.000000	-1.000000	0.549395
0.650000	0.050000	0.050000	7	1	1	0.032472	0.007095	-0.006169	-13.371434	0.000000	-1.000000	0.549283
0.750000	0.050000	0.050000	8	1	1	0.031964	0.006441	-0.006860	-13.362498	0.000000	-1.000000	0.549132
0.850000	0.050000	0.050000	9	1	1	0.029514	0.004937	-0.002069	-13.350631	0.000000	-1.000000	0.548942
0.950000	0.050000	0.050000	10	1	1	0.013323	0.001165	0.012158	-13.327530	0.000000	-1.000000	0.549067
1.000000	0.050000	0.050000	11	1	1	0.000000	0.000000	0.000000	-13.426839	0.000000	1.000000	0.549067
0.000000	0.150000	0.050000	0	2	1	0.000000	0.000000	0.000000	-13.425456	0.000000	1.000000	0.550956
0.050000	0.150000	0.050000	1	2	1	0.011458	0.021086	-0.016825	-13.436364	0.000000	-1.000000	0.550956
0.150000	0.150000	0.050000	2	2	1	0.028762	0.021802	-0.011363	-13.426311	0.000000	-1.000000	0.550778
0.250000	0.150000	0.050000	3	2	1	0.037184	0.021725	-0.007835	-13.415138	0.000000	-1.000000	0.550182
0.350000	0.150000	0.050000	4	2	1	0.040393	0.021065	-0.005495	-13.403933	0.000000	-1.000000	0.549783
0.450000	0.150000	0.050000	5	2	1	0.040515	0.020160	-0.003944	-13.392748	0.000000	-1.000000	0.549537
0.550000	0.150000	0.050000	6	2	1	0.038877	0.019173	-0.002974	-13.381577	0.000000	-1.000000	0.549387
0.650000	0.150000	0.050000	7	2	1	0.036797	0.018061	-0.002920	-13.370697	0.000000	-1.000000	0.549282
0.750000	0.150000	0.050000	8	2	1	0.035926	0.016468	-0.003665	-13.360899	0.000000	-1.000000	0.549156
0.850000	0.150000	0.050000	9	2	1	0.032815	0.012968	0.000096	-13.349072	0.000000	-1.000000	0.549026
0.950000	0.150000	0.050000	10	2	1	0.014812	0.004652	0.012489	-13.326038	0.000000	-1.000000	0.549169
1.000000	0.150000	0.050000	11	2	1	0.000000	0.000000	0.000000	-13.426839	0.000000	1.000000	0.549169
0.000000	0.250000	0.050000	0	3	1	0.000000	0.000000	0.000000	-13.425456	0.000000	1.000000	0.550407
0.050000	0.250000	0.050000	1	3	1	0.011252	0.029126	-0.013925	-13.423176	0.000000	-1.000000	0.550407
0.150000	0.250000	0.050000	2	3	1	0.028236	0.030402	-0.008815	-13.416217	0.000000	-1.000000	0.550307
0.250000	0.250000	0.050000	3	3	1	0.036717	0.030027	-0.005793	-13.408117	0.000000	-1.000000	0.549823
0.350000	0.250000	0.050000	4	3	1	0.040503	0.028759	-0.003868	-13.399423	0.000000	-1.000000	0.549514
0.450000	0.250000	0.050000	5	3	1	0.041570	0.027175	-0.002591	-13.390179	0.000000	-1.000000	0.549328
0.550000	0.250000	0.050000	6	3	1	0.041035	0.025584	-0.001745	-13.380387	0.000000	-1.000000	0.549212
0.650000	0.250000	0.050000	7	3	1	0.039782	0.024019	-0.001396	-13.370219	0.000000	-1.000000	0.549129
0.750000	0.250000	0.050000	8	3	1	0.038521	0.021905	-0.001282	-13.360191	0.000000	-1.000000	0.549054
0.850000	0.250000	0.050000	9	3	1	0.033934	0.017807	0.002272	-13.348534	0.000000	-1.000000	0.549044
0.950000	0.250000	0.050000	10	3	1	0.014959	0.008465	0.013469	-13.325665	0.000000	-1.000000	0.549262
1.000000	0.250000	0.050000	11	3	1	0.000000	0.000000	0.000000	-13.426839	0.000000	1.000000	0.549262
0.000000	0.350000	0.050000	0	4	1	0.000000	0.000000	0.000000	-13.425456	0.000000	1.000000	0.549929
0.050000	0.350000	0.050000	1	4	1	0.010638	0.032270	-0.011109	-13.408656	0.000000	-1.000000	0.549929
0.150000	0.350000	0.050000	2	4	1	0.026661	0.034532	-0.006434	-13.404669	0.000000	-1.000000	0.549894
0.250000	0.350000	0.050000	3	4	1	0.034820	0.034423	-0.004126	-13.399443	0.000000	-1.000000	0.549541
0.350000	0.350000	0.050000	4	4	1	0.038947	0.033054	-0.002818	-13.393109	0.000000	-1.000000	0.549330
0.450000	0.350000	0.050000	5	4	1	0.040807	0.031194	-0.001964	-13.385791	0.000000	-1.000000	0.549204
0.550000	0.350000	0.050000	6	4	1	0.041298	0.029249	-0.001341	-13.377580	0.000000	-1.000000	0.549121
0.650000	0.350000	0.050000	7	4	1	0.040919	0.027279	-0.000809	-13.368618	0.000000	-1.000000	0.549059
0.750000	0.350000	0.050000	8	4	1	0.039401	0.024734	0.000179	-13.359063	0.000000	-1.000000	0.549031
0.850000	0.350000	0.050000	9	4	1	0.033692	0.020423	0.003683	-13.347655	0.000000	-1.000000	0.549098
0.950000	0.350000	0.050000	10	4	1	0.014569	0.010822	0.013702	-13.324826	0.000000	-1.000000	0.549359
1.000000	0.350000	0.050000	11	4	1	0.000000	0.000000	0.000000	-13.426839	0.000000	1.000000	0.549359
0.000000	0.450000	0.050000	0	5	1	0.000000	0.000000	0.000000	-13.425456	0.000000	1.000000	0.549601
0.050000	0.450000	0.050000	1	5	1	0.009868	0.031743	-0.008870	-13.394378	0.000000	-1.000000	0.549601
0.150000	0.450000	0.050000	2	5	1	0.024648	0.035168	-0.004500	-13.392554	0.000000	-1.000000	0.549599
0.250000	0.450000	0.050000	3	5	1	0.032239	0.035892	-0.002795	-13.389605	0.000000	-1.000000	0.549348
0.350000	0.450000	0.050000	4	5	1	0.036457	0.035020	-0.002041	-13.385274	0.000000	-1.000000	0.549214
0.450000	0.450000	0.050000	5	5	1	0.038852	0.033369	-0.001572	-13.379699	0.000000	-1.000000	0.549136
0.550000	0.450000	0.050000	6	5	1	0.040076	0.031374	-0.001137	-13.373029	0.000000	-1.000000	0.549083
0.650000	0.450000	0.050000	7	5	1	0.040270	0.029109	-0.000483	-13.365356	0.000000	-1.000000	0.549049
0.750000	0.450000	0.050000	8	5	1	0.038621	0.026170	0.001013	-13.356625	0.000000	-1.000000	0.549064
0.850000	0.450000	0.050000	9	5	1	0.032393	0.021628	0.004421	-13.345638	0.000000	-1.000000	0.549185
0.950000	0.450000	0.050000	10	5	1	0.013819	0.012064	0.013444	-13.322876	0.000000	-1.000000	0.549457
1.000000	0.450000	0.050000	11	5	1	0.000000	0.000000	0.000000	-13.426839	0.000000	1.000000	0.549457
0.000000	0.550000	0.050000	0	6	1	0.000000	0.000000	0.000000	-13.425456	0.000000	1.000000	0.549404
0.050000	0.550000	0.050000	1	6	1	0.009094	0.029044	-0.007393	-13.380986	0.000000	-1.000000	0.549404
0.150000	0.550000	0.050000	2	6	1	0.022617	0.033431	-0.003104	-13.380297	0.000000	-1.000000	0.549411
0.250000	0.550000	0.050000	3	6	1	0.029548	0.035283	-0.001775	-13.378931	0.000000	-1.000000	0.549225
0.350000	0.550000	0.050000	4	6	1	0.033640	0.035334	-0.001404	-13.376222	0.000000	-1.000000	0.549138
0.450000	0.550000	0.050000	5	6	1	0.036252	0.034266	-0.001200	-13.372174	0.000000	-1.000000	0.549095
0.550000	0.550000	0.050000	6	6	1	0.037813	0.032469	-0.000867	-13.366891	0.000000	-1.000000	0.549073
0.650000	0.550000	0.050000	7	6	1	0.038187	0.030033	-0.000100	-13.360365	0.000000	-1.000000	0.549076
0.750000	0.550000	0.050000	8	6	1	0.036349	0.026656	0.001646	-13.352481	0.000000	-1.000000	0.549133
0.850000	0.550000	0.050000	9	6	1	0.029990	0.021716	0.004933	-13.341936	0.000000	-1.000000	0.549293
0.950000	0.550000	0.050000	10	6	1	0.012651	0.011989	0.013100	-13.319087	0.000000	-1.000000	0.549553
1.000000	0.550000	0.050000	11	6	1	0.000000	0.000000	0.000000	-13.426839	0.000000	1.000000	0.549553
0.000000	0.650000	0.050000	0	7	1	0.000000	0.000000	0.000000	-13.425456	0.000000	1.000000	0.549288
0.050000	0.650000	0.050000	1	7	1	0.008302	0.025655	-0.006614	-13.368888	0.000000	-1.000000	0.549288
0.150000	0.650000	0.050000	2	7	1	0.020661	0.030410	-0.002362	-13.368129	0.000000	-1.000000	0.549297
0.250000	0.650000	0.050000	3	7	1	0.027031	0.033352	-0.001107	-13.367597	0.000000	-1.000000	0.549147
0.350000	0.650000	0.050000	4	7	1	0.030853	0.034470	-0.000833	-13.366133	0.000000	-1.000000	0.549085
0.450000	0.650000	0.050000	5	7	1	0.033355	0.034124	-0.000670	-13.363384	0.000000	-1.000000	0.549067
0.550000	0.650000	0.050000	6	7	1	0.034829	0.032588	-0.000276	-13.359262	0.000000	-1.000000	0.549080
0.650000	0.650000	0.050000	7	7	1	0.034949	0.029969	0.000694	-13.353712	0.000000	-1.000000	0.549128
0.750000	0.650000	0.050000	8	7	1	0.032644	0.025989	0.002635	-13.346476	0.000000	-1.000000	0.549234
0.850000	0.650000	0.050000	9	7	1	0.026168	0.020124	0.005881	-13.335981	0.000000	-1.000000	0.549426
0.950000	0.650000	0.050000	10	7	1	0.010817	0.008807	0.013550	-13.311652	0.000000	-1.000000	0.549655
1.000000	0.650000	0.050000	11	7	1	0.000000	0.000000	0.000000	-13.426839	0.000000	1.000000	0.549655
0.000000	0.750000	0.050000	0	8	1	0.000000	0.000000	0.000000	-13.425456	0.000000	1.000000	0.549195
0.050000	0.750000	0.050000	1	8	1	0.007383	0.023758	-0.007174	-13.359517	0.000000	-1.000000	0.549195
0.150000	0.750000	0.050000	2	8	1	0.018573	0.028005	-0.003099	-13.357430	0.000000	-1.000000	0.549211
0.250000	0.750000	0.050000	3	8	1	0.024474	0.031201	-0.001148	-13.356510	0.000000	-1.000000	0.549087
0.350000	0.750000	0.050000	4	8	1	0.027900	0.032697	-0.000237	-13.355423	0.000000	-1.000000	0.549051
0.450000	0.750000	0.050000	5	8	1	0.030020	0.032606	0.000409	-13.353424	0.000000	-1.000000	0.549067
0.550000	0.750000	0.050000	6	8	1	0.030991	0.031069	0.001128	-13.350134	0.000000	-1.000000	0.549120
0.650000	0.750000	0.050000	7	8	1	0.030357	0.028098	0.002358	-13.345249	0.000000	-1.000000	0.549216
0.750000	0.750000	0.050000	8	8	1	0.027001	0.023264	0.004570	-13.338096	0.000000	-1.000000	0.549376
0.850000	0.750000	0.050000	9	8	1	0.019009	0.015763	0.008468	-13.325628	0.000000	-1.000000	0.549599
0.950000	0.750000	0.050000	10	8	1	0.006777	-0.003262	0.016114	-13.312678	0.000000	-1.000000	0.549764
1.000000	0.750000	0.050000	11	8	1	0.000000	0.000000	0.000000	-13.426839	0.000000	1.000000	0.549764
0.000000	0.850000	0.050000	0	9	1	0.000000	0.000000	0.000000	-13.425456	0.000000	1.000000	0.549037
0.050000	0.850000	0.050000	1	9	1	0.006141	0.024011	-0.006604	-13.351339	0.000000	-1.000000	0.549037
0.150000	0.850000	0.050000	2	9	1	0.015637	0.026785	-0.002843	-13.347886	0.000000	-1.000000	0.549099
0.250000	0.850000	0.050000	3	9	1	0.020851	0.028177	0.000220	-13.345253	0.000000	-1.000000	0.549054
0.350000	0.850000	0.050000	4	9	1	0.023777	0.028553	0.001980	-13.343666	0.000000	-1.000000	0.549071
0.450000	0.850000	0.050000	5	9	1	0.025332	0.027870	0.003051	-13.341715	0.000000	-1.000000	0.549131
0.550000	0.850000	0.050000	6	9	1	0.025568	0.026045	0.003965	-13.338641	0.000000	-1.000000	0.549227
0.650000	0.850000	0.050000	7	9	1	0.023742	0.022828	0.005303	-13.333703	0.000000	-1.000000	0.549366
0.750000	0.850000	0.050000	8	9	1	0.018021	0.017264	0.008114	-13.324719	0.000000	-1.000000	0.549561
0.850000	0.850000	0.050000	9	9	1	0.002810	0.000773	0.023042	-13.267112	0.000000	-1.000000	0.549741
0.950000	0.850000	0.050000	10	9	1	-0.004127	-0.014645	-0.002081	-13.367709	0.000000	-1.000000	0.549728
1.000000	0.850000	0.050000	11	9	1	0.000000	0.000000	0.000000	-13.426839	0.000000	1.000000	0.549728
0.000000	0.950000	0.050000	0	10	1	0.000000	0.000000	0.000000	-13.425456	0.000000	1.000000	0.548997
0.050000	0.950000	0.050000	1	10	1	0.002084	0.012237	0.010153	-13.328914	0.000000	-1.000000	0.548997
0.150000	0.950000	0.050000	2	10	1	0.006934	0.013137	0.010370	-13.325806	0.000000	-1.000000	0.549096
0.250000	0.950000	0.050000	3	10	1	0.011337	0.013049	0.011412	-13.323587	0.000000	-1.000000	0.549155
0.350000	0.950000	0.050000	4	10	1	0.013801	0.012753	0.011926	-13.321678	0.000000	-1.000000	0.549225
0.450000	0.950000	0.050000	5	10	1	0.014782	0.012165	0.012011	-13.319340	0.000000	-1.000000	0.549313
0.550000	0.950000	0.050000	6	10	1	0.014025	0.011166	0.012077	-13.315695	0.000000	-1.000000	0.549417
0.650000	0.950000	0.050000	7	10	1	0.009748	0.009550	0.012916	-13.308748	0.000000	-1.000000	0.549546
0.750000	0.950000	0.050000	8	10	1	-0.002601	0.006648	0.015631	-13.306449	0.000000	-1.000000	0.549690
0.850000	0.950000	0.050000	9	10	1	-0.011104	-0.005602	-0.006082	-13.369267	0.000000	-1.000000	0.549720
0.950000	0.950000	0.050000	10	10	1	-0.005312	-0.008346	-0.013658	-13.391170	0.000000	-1.000000	0.549819
1.000000	0.950000	0.050000	11	10	1	0.000000	0.000000	0.000000	-13.426839	0.000000	1.000000	0.549819
0.000000	1.000000	0.050000	0	11	1	0.000000	0.000000	0.000000	-13.425456	0.000000	1.000000	0.000000
0.050000	1.000000	0.050000	1	11	1	0.000000	0.000000	0.000000	-13.426733	0.000000	1.000000	0.548997
0.150000	1.000000	0.050000	2	11	1	0.000000	0.000000	0.000000	-13.426733	0.000000	1.000000	0.549096
0.250000	1.000000	0.050000	3	11	1	0.000000	0.000000	0.000000	-13.426733	0.000000	1.000000	0.549155
0.350000	1.000000	0.050000	4	11	1	0.000000	0.000000	0.000000	-13.426733	0.000000	1.000000	0.549225
0.450000	1.000000	0.050000	5	11	1	0.000000	0.000000	0.000000	-13.426733	0.000000	1.000000	0.549313
0.550000	1.000000	0.050000	6	11	1	0.000000	0.000000	0.000000	-13.426733	0.000000	1.000000	0.549417
0.650000	1.000000	0.050000	7	11	1	0.000000	0.000000	0.000000	-13.426733	0.000000	1.000000	0.549546
0.750000	1.000000	0.050000	8	11	1	0.000000	0.000000	0.000000	-13.426733	0.000000	1.000000	0.549690
0.850000	1.000000	0.050000	9	11	1	0.000000	0.000000	0.000000	-13.426733	0.000000	1.000000	0.549720
0.950000	1.000000	0.050000	10	11	1	0.000000	0.000000	0.000000	-13.426733	0.000000	1.000000	0.549819
1.000000	1.000000	0.050000	11	11	1	0.000000	0.000000	0.000000	-13.426839	0.000000	1.000000	0.000000
0.000000	0.000000	0.150000	0	0	2	0.000000	0.000000	0.000000	-13.425456	0.000000	1.000000	0.000000
0.050000	0.000000	0.150000	1	0	2	0.000000	0.000000	0.000000	-13.425441	0.000000	1.000000	0.432527
0.150000	0.000000	0.150000	2	0	2	0.000000	0.000000	0.000000	-13.425441	0.000000	1.000000	0.432298
0.250000	0.000000	0.150000	3	0	2	0.000000	0.000000	0.000000	-13.425441	0.000000	1.000000	0.431917
0.350000	0.000000	0.150000	4	0	2	0.000000	0.000000	0.000000	-13.425441	0.000000	1.000000	0.431658
0.450000	0.000000	0.150000	5	0	2	0.000000	0.000000	0.000000	-13.425441	0.000000	1.000000	0.431508
0.550000	0.000000	0.150000	6	0	2	0.000000	0.000000	0.000000	-13.425441	0.000000	1.000000	0.431425
0.650000	0.000000	0.150000	7	0	2	0.000000	0.000000	0.000000	-13.425441	0.000000	1.000000	0.431368
0.750000	0.000000	0.150000	8	0	2	0.000000	0.000000	0.000000	-13.425441	0.000000	1.000000	0.431256
0.850000	0.000000	0.150000	9	0	2	0.000000	0.000000	0.000000	-13.425441	0.000000	1.000000	0.431046
0.950000	0.000000	0.150000	10	0	2	0.000000	0.000000	0.000000	-13.425441	0.000000	1.000000	0.431238
1.000000	0.000000	0.150000	11	0	2	0.000000	0.000000	0.000000	-13.426839	0.000000	1.000000	0.000000
0.000000	0.050000	0.150000	0	1	2	0.000000	0.000000	0.000000	-13.425456	0.000000	1.000000	0.432527