TITLE = "dt=0.100000s, t=310.000000s, nu=0.000016, Lx=1.000000, Ly=1.000000, Lz=1.000000, Nx=32, Ny=32, Nz=32 "
VARIABLES =X, Y, Z, I, J, K, U, V, W, T, Xi, FlagP, P 
ZONE F=POINT, I=32, J=32, K=32
0.000000	0.000000	0.000000	0	0	0	0.000000	0.000000	0.000000	19.910000	0.000000	1.000000	0.000000
0.016667	0.000000	0.000000	1	0	0	0.000000	0.000000	0.000000	19.901508	0.000000	1.000000	0.000000
0.050000	0.000000	0.000000	2	0	0	0.000000	0.000000	0.000000	19.901508	0.000000	1.000000	0.000000
0.083333	0.000000	0.000000	3	0	0	0.000000	0.000000	0.000000	19.901508	0.000000	1.000000	0.000000
0.116666	0.000000	0.000000	4	0	0	0.000000	0.000000	0.000000	19.901508	0.000000	1.000000	0.000000
0.149999	0.000000	0.000000	5	0	0	0.000000	0.000000	0.000000	19.901508	0.000000	1.000000	0.000000
0.183332	0.000000	0.000000	6	0	0	0.000000	0.000000	0.000000	19.901508	0.000000	1.000000	0.000000
0.216665	0.000000	0.000000	7	0	0	0.000000	0.000000	0.000000	19.901508	0.000000	1.000000	0.000000
0.249998	0.000000	0.000000	8	0	0	0.000000	0.000000	0.000000	19.901508	0.000000	1.000000	0.000000
0.283331	0.000000	0.000000	9	0	0	0.000000	0.000000	0.000000	19.901508	0.000000	1.000000	0.000000
0.316663	0.000000	0.000000	10	0	0	0.000000	0.000000	0.000000	19.901508	0.000000	1.000000	0.000000
0.349997	0.000000	0.000000	11	0	0	0.000000	0.000000	0.000000	19.901508	0.000000	1.000000	0.000000
0.383329	0.000000	0.000000	12	0	0	0.000000	0.000000	0.000000	19.901508	0.000000	1.000000	0.000000
0.416663	0.000000	0.000000	13	0	0	0.000000	0.000000	0.000000	19.901508	0.000000	1.000000	0.000000
0.449995	0.000000	0.000000	14	0	0	0.000000	0.000000	0.000000	19.901508	0.000000	1.000000	0.000000
0.483329	0.000000	0.000000	15	0	0	0.000000	0.000000	0.000000	19.901508	0.000000	1.000000	0.000000
0.516662	0.000000	0.000000	16	0	0	0.000000	0.000000	0.000000	19.901508	0.000000	1.000000	0.000000
0.549995	0.000000	0.000000	17	0	0	0.000000	0.000000	0.000000	19.901508	0.000000	1.000000	0.000000
0.583328	0.000000	0.000000	18	0	0	0.000000	0.000000	0.000000	19.901508	0.000000	1.000000	0.000000
0.616661	0.000000	0.000000	19	0	0	0.000000	0.000000	0.000000	19.901508	0.000000	1.000000	0.000000
0.649994	0.000000	0.000000	20	0	0	0.000000	0.000000	0.000000	19.901508	0.000000	1.000000	0.000000
0.683327	0.000000	0.000000	21	0	0	0.000000	0.000000	0.000000	19.901508	0.000000	1.000000	0.000000
0.716660	0.000000	0.000000	22	0	0	0.000000	0.000000	0.000000	19.901508	0.000000	1.000000	0.000000
0.749993	0.000000	0.000000	23	0	0	0.000000	0.000000	0.000000	19.901508	0.000000	1.000000	0.000000
0.783326	0.000000	0.000000	24	0	0	0.000000	0.000000	0.000000	19.901508	0.000000	1.000000	0.000000
0.816659	0.000000	0.000000	25	0	0	0.000000	0.000000	0.000000	19.901508	0.000000	1.000000	0.000000
0.849992	0.000000	0.000000	26	0	0	0.000000	0.000000	0.000000	19.901508	0.000000	1.000000	0.000000
0.883325	0.000000	0.000000	27	0	0	0.000000	0.000000	0.000000	19.901508	0.000000	1.000000	0.000000
0.916658	0.000000	0.000000	28	0	0	0.000000	0.000000	0.000000	19.901508	0.000000	1.000000	0.000000
0.949991	0.000000	0.000000	29	0	0	0.000000	0.000000	0.000000	19.901508	0.000000	1.000000	0.000000
0.983329	0.000000	0.000000	30	0	0	0.000000	0.000000	0.000000	19.901508	0.000000	1.000000	0.000000
1.000000	0.000000	0.000000	31	0	0	0.000000	0.000000	0.000000	19.910000	0.000000	1.000000	0.000000
0.000000	0.016667	0.000000	0	1	0	0.000000	0.000000	0.000000	19.926983	0.000000	1.000000	0.000000
0.016667	0.016667	0.000000	1	1	0	0.000000	0.000000	0.000000	19.926983	0.000000	1.000000	-0.275992
0.050000	0.016667	0.000000	2	1	0	0.000000	0.000000	0.000000	19.926983	0.000000	1.000000	-0.276306
0.083333	0.016667	0.000000	3	1	0	0.000000	0.000000	0.000000	19.926983	0.000000	1.000000	-0.281785
0.116666	0.016667	0.000000	4	1	0	0.000000	0.000000	0.000000	19.926983	0.000000	1.000000	-0.284515
0.149999	0.016667	0.000000	5	1	0	0.000000	0.000000	0.000000	19.926983	0.000000	1.000000	-0.285618
0.183332	0.016667	0.000000	6	1	0	0.000000	0.000000	0.000000	19.926983	0.000000	1.000000	-0.285949
0.216665	0.016667	0.000000	7	1	0	0.000000	0.000000	0.000000	19.926983	0.000000	1.000000	-0.285968
0.249998	0.016667	0.000000	8	1	0	0.000000	0.000000	0.000000	19.926983	0.000000	1.000000	-0.285909
0.283331	0.016667	0.000000	9	1	0	0.000000	0.000000	0.000000	19.926983	0.000000	1.000000	-0.285856
0.316663	0.016667	0.000000	10	1	0	0.000000	0.000000	0.000000	19.926983	0.000000	1.000000	-0.285835
0.349997	0.016667	0.000000	11	1	0	0.000000	0.000000	0.000000	19.926983	0.000000	1.000000	-0.285845
0.383329	0.016667	0.000000	12	1	0	0.000000	0.000000	0.000000	19.926983	0.000000	1.000000	-0.285882
0.416663	0.016667	0.000000	13	1	0	0.000000	0.000000	0.000000	19.926983	0.000000	1.000000	-0.285939
0.449995	0.016667	0.000000	14	1	0	0.000000	0.000000	0.000000	19.926983	0.000000	1.000000	-0.286013
0.483329	0.016667	0.000000	15	1	0	0.000000	0.000000	0.000000	19.926983	0.000000	1.000000	-0.286094
0.516662	0.016667	0.000000	16	1	0	0.000000	0.000000	0.000000	19.926983	0.000000	1.000000	-0.286168
0.549995	0.016667	0.000000	17	1	0	0.000000	0.000000	0.000000	19.926983	0.000000	1.000000	-0.286210
0.583328	0.016667	0.000000	18	1	0	0.000000	0.000000	0.000000	19.926983	0.000000	1.000000	-0.286179
0.616661	0.016667	0.000000	19	1	0	0.000000	0.000000	0.000000	19.926983	0.000000	1.000000	-0.286027
0.649994	0.016667	0.000000	20	1	0	0.000000	0.000000	0.000000	19.926983	0.000000	1.000000	-0.285731
0.683327	0.016667	0.000000	21	1	0	0.000000	0.000000	0.000000	19.926983	0.000000	1.000000	-0.285321
0.716660	0.016667	0.000000	22	1	0	0.000000	0.000000	0.000000	19.926983	0.000000	1.000000	-0.284881
0.749993	0.016667	0.000000	23	1	0	0.000000	0.000000	0.000000	19.926983	0.000000	1.000000	-0.284518
0.783326	0.016667	0.000000	24	1	0	0.000000	0.000000	0.000000	19.926983	0.000000	1.000000	-0.284323
0.816659	0.016667	0.000000	25	1	0	0.000000	0.000000	0.000000	19.926983	0.000000	1.000000	-0.284340
0.849992	0.016667	0.000000	26	1	0	0.000000	0.000000	0.000000	19.926983	0.000000	1.000000	-0.284512
0.883325	0.016667	0.000000	27	1	0	0.000000	0.000000	0.000000	19.926983	0.000000	1.000000	-0.284683
0.916658	0.016667	0.000000	28	1	0	0.000000	0.000000	0.000000	19.926983	0.000000	1.000000	-0.284895
0.949991	0.016667	0.000000	29	1	0	0.000000	0.000000	0.000000	19.926983	0.000000	1.000000	-0.285008
0.983329	0.016667	0.000000	30	1	0	0.000000	0.000000	0.000000	19.926983	0.000000	1.000000	-0.284737
1.000000	0.016667	0.000000	31	1	0	0.000000	0.000000	0.000000	19.926983	0.000000	1.000000	0.000000
0.000000	0.050000	0.000000	0	2	0	0.000000	0.000000	0.000000	19.926983	0.000000	1.000000	0.000000
0.016667	0.050000	0.000000	1	2	0	0.000000	0.000000	0.000000	19.926983	0.000000	1.000000	-0.272379
0.050000	0.050000	0.000000	2	2	0	0.000000	0.000000	0.000000	19.926983	0.000000	1.000000	-0.274774
0.083333	0.050000	0.000000	3	2	0	0.000000	0.000000	0.000000	19.926983	0.000000	1.000000	-0.281503
0.116666	0.050000	0.000000	4	2	0	0.000000	0.000000	0.000000	19.926983	0.000000	1.000000	-0.284359
0.149999	0.050000	0.000000	5	2	0	0.000000	0.000000	0.000000	19.926983	0.000000	1.000000	-0.285412
0.183332	0.050000	0.000000	6	2	0	0.000000	0.000000	0.000000	19.926983	0.000000	1.000000	-0.285751
0.216665	0.050000	0.000000	7	2	0	0.000000	0.000000	0.000000	19.926983	0.000000	1.000000	-0.285818
0.249998	0.050000	0.000000	8	2	0	0.000000	0.000000	0.000000	19.926983	0.000000	1.000000	-0.285806
0.283331	0.050000	0.000000	9	2	0	0.000000	0.000000	0.000000	19.926983	0.000000	1.000000	-0.285788
0.316663	0.050000	0.000000	10	2	0	0.000000	0.000000	0.000000	19.926983	0.000000	1.000000	-0.285785
0.349997	0.050000	0.000000	11	2	0	0.000000	0.000000	0.000000	19.926983	0.000000	1.000000	-0.285804
0.383329	0.050000	0.000000	12	2	0	0.000000	0.000000	0.000000	19.926983	0.000000	1.000000	-0.285842
0.416663	0.050000	0.000000	13	2	0	0.000000	0.000000	0.000000	19.926983	0.000000	1.000000	-0.285898
0.449995	0.050000	0.000000	14	2	0	0.000000	0.000000	0.000000	19.926983	0.000000	1.000000	-0.285969
0.483329	0.050000	0.000000	15	2	0	0.000000	0.000000	0.000000	19.926983	0.000000	1.000000	-0.286052
0.516662	0.050000	0.000000	16	2	0	0.000000	0.000000	0.000000	19.926983	0.000000	1.000000	-0.286135
0.549995	0.050000	0.000000	17	2	0	0.000000	0.000000	0.000000	19.926983	0.000000	1.000000	-0.286194
0.583328	0.050000	0.000000	18	2	0	0.000000	0.000000	0.000000	19.926983	0.000000	1.000000	-0.286180
0.616661	0.050000	0.000000	19	2	0	0.000000	0.000000	0.000000	19.926983	0.000000	1.000000	-0.286019
0.649994	0.050000	0.000000	20	2	0	0.000000	0.000000	0.000000	19.926983	0.000000	1.000000	-0.285695
0.683327	0.050000	0.000000	21	2	0	0.000000	0.000000	0.000000	19.926983	0.000000	1.000000	-0.285249
0.716660	0.050000	0.000000	22	2	0	0.000000	0.000000	0.000000	19.926983	0.000000	1.000000	-0.284794
0.749993	0.050000	0.000000	23	2	0	0.000000	0.000000	0.000000	19.926983	0.000000	1.000000	-0.284455
0.783326	0.050000	0.000000	24	2	0	0.000000	0.000000	0.000000	19.926983	0.000000	1.000000	-0.284318
0.816659	0.050000	0.000000	25	2	0	0.000000	0.000000	0.000000	19.926983	0.000000	1.000000	-0.284555
0.849992	0.050000	0.000000	26	2	0	0.000000	0.000000	0.000000	19.926983	0.000000	1.000000	-0.285139
0.883325	0.050000	0.000000	27	2	0	0.000000	0.000000	0.000000	19.926983	0.000000	1.000000	-0.285643
0.916658	0.050000	0.000000	28	2	0	0.000000	0.000000	0.000000	19.926983	0.000000	1.000000	-0.286021
0.949991	0.050000	0.000000	29	2	0	0.000000	0.000000	0.000000	19.926983	0.000000	1.000000	-0.286208
0.983329	0.050000	0.000000	30	2	0	0.000000	0.000000	0.000000	19.926983	0.000000	1.000000	-0.286137
1.000000	0.050000	0.000000	31	2	0	0.000000	0.000000	0.000000	19.926983	0.000000	1.000000	0.000000
0.000000	0.083333	0.000000	0	3	0	0.000000	0.000000	0.000000	19.926983	0.000000	1.000000	0.000000
0.016667	0.083333	0.000000	1	3	0	0.000000	0.000000	0.000000	19.926983	0.000000	1.000000	-0.271352
0.050000	0.083333	0.000000	2	3	0	0.000000	0.000000	0.000000	19.926983	0.000000	1.000000	-0.274097
0.083333	0.083333	0.000000	3	3	0	0.000000	0.000000	0.000000	19.926983	0.000000	1.000000	-0.281400
0.116666	0.083333	0.000000	4	3	0	0.000000	0.000000	0.000000	19.926983	0.000000	1.000000	-0.284283
0.149999	0.083333	0.000000	5	3	0	0.000000	0.000000	0.000000	19.926983	0.000000	1.000000	-0.285293
0.183332	0.083333	0.000000	6	3	0	0.000000	0.000000	0.000000	19.926983	0.000000	1.000000	-0.285620
0.216665	0.083333	0.000000	7	3	0	0.000000	0.000000	0.000000	19.926983	0.000000	1.000000	-0.285709
0.249998	0.083333	0.000000	8	3	0	0.000000	0.000000	0.000000	19.926983	0.000000	1.000000	-0.285725
0.283331	0.083333	0.000000	9	3	0	0.000000	0.000000	0.000000	19.926983	0.000000	1.000000	-0.285727
0.316663	0.083333	0.000000	10	3	0	0.000000	0.000000	0.000000	19.926983	0.000000	1.000000	-0.285739
0.349997	0.083333	0.000000	11	3	0	0.000000	0.000000	0.000000	19.926983	0.000000	1.000000	-0.285765
0.383329	0.083333	0.000000	12	3	0	0.000000	0.000000	0.000000	19.926983	0.000000	1.000000	-0.285806
0.416663	0.083333	0.000000	13	3	0	0.000000	0.000000	0.000000	19.926983	0.000000	1.000000	-0.285864
0.449995	0.083333	0.000000	14	3	0	0.000000	0.000000	0.000000	19.926983	0.000000	1.000000	-0.285940
0.483329	0.083333	0.000000	15	3	0	0.000000	0.000000	0.000000	19.926983	0.000000	1.000000	-0.286030
0.516662	0.083333	0.000000	16	3	0	0.000000	0.000000	0.000000	19.926983	0.000000	1.000000	-0.286127
0.549995	0.083333	0.000000	17	3	0	0.000000	0.000000	0.000000	19.926983	0.000000	1.000000	-0.286196
0.583328	0.083333	0.000000	18	3	0	0.000000	0.000000	0.000000	19.926983	0.000000	1.000000	-0.286161
0.616661	0.083333	0.000000	19	3	0	0.000000	0.000000	0.000000	19.926983	0.000000	1.000000	-0.285936
0.649994	0.083333	0.000000	20	3	0	0.000000	0.000000	0.000000	19.926983	0.000000	1.000000	-0.285495
0.683327	0.083333	0.000000	21	3	0	0.000000	0.000000	0.000000	19.926983	0.000000	1.000000	-0.284946
0.716660	0.083333	0.000000	22	3	0	0.000000	0.000000	0.000000	19.926983	0.000000	1.000000	-0.284510
0.749993	0.083333	0.000000	23	3	0	0.000000	0.000000	0.000000	19.926983	0.000000	1.000000	-0.284375
0.783326	0.083333	0.000000	24	3	0	0.000000	0.000000	0.000000	19.926983	0.000000	1.000000	-0.284778
0.816659	0.083333	0.000000	25	3	0	0.000000	0.000000	0.000000	19.926983	0.000000	1.000000	-0.285592
0.849992	0.083333	0.000000	26	3	0	0.000000	0.000000	0.000000	19.926983	0.000000	1.000000	-0.286400
0.883325	0.083333	0.000000	27	3	0	0.000000	0.000000	0.000000	19.926983	0.000000	1.000000	-0.286959
0.916658	0.083333	0.000000	28	3	0	0.000000	0.000000	0.000000	19.926983	0.000000	1.000000	-0.287267
0.949991	0.083333	0.000000	29	3	0	0.000000	0.000000	0.000000	19.926983	0.000000	1.000000	-0.287379
0.983329	0.083333	0.000000	30	3	0	0.000000	0.000000	0.000000	19.926983	0.000000	1.000000	-0.287347
1.000000	0.083333	0.000000	31	3	0	0.000000	0.000000	0.000000	19.926983	0.000000	1.000000	0.000000
0.000000	0.116666	0.000000	0	4	0	0.000000	0.000000	0.000000	19.926983	0.000000	1.000000	0.000000
0.016667	0.116666	0.000000	1	4	0	0.000000	0.000000	0.000000	19.926983	0.000000	1.000000	-0.272226
0.050000	0.116666	0.000000	2	4	0	0.000000	0.000000	0.000000	19.926983	0.000000	1.000000	-0.274375
0.083333	0.116666	0.000000	3	4	0	0.000000	0.000000	0.000000	19.926983	0.000000	1.000000	-0.281448
0.116666	0.116666	0.000000	4	4	0	0.000000	0.000000	0.000000	19.926983	0.000000	1.000000	-0.284253
0.149999	0.116666	0.000000	5	4	0	0.000000	0.000000	0.000000	19.926983	0.000000	1.000000	-0.285237
0.183332	0.116666	0.000000	6	4	0	0.000000	0.000000	0.000000	19.926983	0.000000	1.000000	-0.285565
0.216665	0.116666	0.000000	7	4	0	0.000000	0.000000	0.000000	19.926983	0.000000	1.000000	-0.285670
0.249998	0.116666	0.000000	8	4	0	0.000000	0.000000	0.000000	19.926983	0.000000	1.000000	-0.285700
0.283331	0.116666	0.000000	9	4	0	0.000000	0.000000	0.000000	19.926983	0.000000	1.000000	-0.285714
0.316663	0.116666	0.000000	10	4	0	0.000000	0.000000	0.000000	19.926983	0.000000	1.000000	-0.285733
0.349997	0.116666	0.000000	11	4	0	0.000000	0.000000	0.000000	19.926983	0.000000	1.000000	-0.285764
0.383329	0.116666	0.000000	12	4	0	0.000000	0.000000	0.000000	19.926983	0.000000	1.000000	-0.285806
0.416663	0.116666	0.000000	13	4	0	0.000000	0.000000	0.000000	19.926983	0.000000	1.000000	-0.285863
0.449995	0.116666	0.000000	14	4	0	0.000000	0.000000	0.000000	19.926983	0.000000	1.000000	-0.285937
0.483329	0.116666	0.000000	15	4	0	0.000000	0.000000	0.000000	19.926983	0.000000	1.000000	-0.286031
0.516662	0.116666	0.000000	16	4	0	0.000000	0.000000	0.000000	19.926983	0.000000	1.000000	-0.286127
0.549995	0.116666	0.000000	17	4	0	0.000000	0.000000	0.000000	19.926983	0.000000	1.000000	-0.286161
0.583328	0.116666	0.000000	18	4	0	0.000000	0.000000	0.000000	19.926983	0.000000	1.000000	-0.286019
0.616661	0.116666	0.000000	19	4	0	0.000000	0.000000	0.000000	19.926983	0.000000	1.000000	-0.285601
0.649994	0.116666	0.000000	20	4	0	0.000000	0.000000	0.000000	19.926983	0.000000	1.000000	-0.284948
0.683327	0.116666	0.000000	21	4	0	0.000000	0.000000	0.000000	19.926983	0.000000	1.000000	-0.284374
0.716660	0.116666	0.000000	22	4	0	0.000000	0.000000	0.000000	19.926983	0.000000	1.000000	-0.284298
0.749993	0.116666	0.000000	23	4	0	0.000000	0.000000	0.000000	19.926983	0.000000	1.000000	-0.285037
0.783326	0.116666	0.000000	24	4	0	0.000000	0.000000	0.000000	19.926983	0.000000	1.000000	-0.285983
0.816659	0.116666	0.000000	25	4	0	0.000000	0.000000	0.000000	19.926983	0.000000	1.000000	-0.286878
0.849992	0.116666	0.000000	26	4	0	0.000000	0.000000	0.000000	19.926983	0.000000	1.000000	-0.287497
0.883325	0.116666	0.000000	27	4	0	0.000000	0.000000	0.000000	19.926983	0.000000	1.000000	-0.287810
0.916658	0.116666	0.000000	28	4	0	0.000000	0.000000	0.000000	19.926983	0.000000	1.000000	-0.287935
0.949991	0.116666	0.000000	29	4	0	0.000000	0.000000	0.000000	19.926983	0.000000	1.000000	-0.287983
0.983329	0.116666	0.000000	30	4	0	0.000000	0.000000	0.000000	19.926983	0.000000	1.000000	-0.288025
1.000000	0.116666	0.000000	31	4	0	0.000000	0.000000	0.000000	19.926983	0.000000	1.000000	0.000000
0.000000	0.149999	0.000000	0	5	0	0.000000	0.000000	0.000000	19.926983	0.000000	1.000000	0.000000
0.016667	0.149999	0.000000	1	5	0	0.000000	0.000000	0.000000	19.926983	0.000000	1.000000	-0.273178
0.050000	0.149999	0.000000	2	5	0	0.000000	0.000000	0.000000	19.926983	0.000000	1.000000	-0.274936
0.083333	0.149999	0.000000	3	5	0	0.000000	0.000000	0.000000	19.926983	0.000000	1.000000	-0.281491
0.116666	0.149999	0.000000	4	5	0	0.000000	0.000000	0.000000	19.926983	0.000000	1.000000	-0.284150
0.149999	0.149999	0.000000	5	5	0	0.000000	0.000000	0.000000	19.926983	0.000000	1.000000	-0.285137
0.183332	0.149999	0.000000	6	5	0	0.000000	0.000000	0.000000	19.926983	0.000000	1.000000	-0.285513
0.216665	0.149999	0.000000	7	5	0	0.000000	0.000000	0.000000	19.926983	0.000000	1.000000	-0.285656
0.249998	0.149999	0.000000	8	5	0	0.000000	0.000000	0.000000	19.926983	0.000000	1.000000	-0.285710
0.283331	0.149999	0.000000	9	5	0	0.000000	0.000000	0.000000	19.926983	0.000000	1.000000	-0.285736
0.316663	0.149999	0.000000	10	5	0	0.000000	0.000000	0.000000	19.926983	0.000000	1.000000	-0.285762
0.349997	0.149999	0.000000	11	5	0	0.000000	0.000000	0.000000	19.926983	0.000000	1.000000	-0.285794
0.383329	0.149999	0.000000	12	5	0	0.000000	0.000000	0.000000	19.926983	0.000000	1.000000	-0.285834
0.416663	0.149999	0.000000	13	5	0	0.000000	0.000000	0.000000	19.926983	0.000000	1.000000	-0.285885
0.449995	0.149999	0.000000	14	5	0	0.000000	0.000000	0.000000	19.926983	0.000000	1.000000	-0.285951
0.483329	0.149999	0.000000	15	5	0	0.000000	0.000000	0.000000	19.926983	0.000000	1.000000	-0.286035
0.516662	0.149999	0.000000	16	5	0	0.000000	0.000000	0.000000	19.926983	0.000000	1.000000	-0.286091
0.549995	0.149999	0.000000	17	5	0	0.000000	0.000000	0.000000	19.926983	0.000000	1.000000	-0.286004
0.583328	0.149999	0.000000	18	5	0	0.000000	0.000000	0.000000	19.926983	0.000000	1.000000	-0.285628
0.616661	0.149999	0.000000	19	5	0	0.000000	0.000000	0.000000	19.926983	0.000000	1.000000	-0.284900
0.649994	0.149999	0.000000	20	5	0	0.000000	0.000000	0.000000	19.926983	0.000000	1.000000	-0.284165
0.683327	0.149999	0.000000	21	5	0	0.000000	0.000000	0.000000	19.926983	0.000000	1.000000	-0.284119
0.716660	0.149999	0.000000	22	5	0	0.000000	0.000000	0.000000	19.926983	0.000000	1.000000	-0.285147
0.749993	0.149999	0.000000	23	5	0	0.000000	0.000000	0.000000	19.926983	0.000000	1.000000	-0.286243
0.783326	0.149999	0.000000	24	5	0	0.000000	0.000000	0.000000	19.926983	0.000000	1.000000	-0.287144
0.816659	0.149999	0.000000	25	5	0	0.000000	0.000000	0.000000	19.926983	0.000000	1.000000	-0.287737
0.849992	0.149999	0.000000	26	5	0	0.000000	0.000000	0.000000	19.926983	0.000000	1.000000	-0.288033
0.883325	0.149999	0.000000	27	5	0	0.000000	0.000000	0.000000	19.926983	0.000000	1.000000	-0.288129
0.916658	0.149999	0.000000	28	5	0	0.000000	0.000000	0.000000	19.926983	0.000000	1.000000	-0.288117
0.949991	0.149999	0.000000	29	5	0	0.000000	0.000000	0.000000	19.926983	0.000000	1.000000	-0.288148
0.983329	0.149999	0.000000	30	5	0	0.000000	0.000000	0.000000	19.926983	0.000000	1.000000	-0.288271
1.000000	0.149999	0.000000	31	5	0	0.000000	0.000000	0.000000	19.926983	0.000000	1.000000	0.000000
0.000000	0.183332	0.000000	0	6	0	0.000000	0.000000	0.000000	19.926983	0.000000	1.000000	0.000000
0.016667	0.183332	0.000000	1	6	0	0.000000	0.000000	0.000000	19.926983	0.000000	1.000000	-0.274026
0.050000	0.183332	0.000000	2	6	0	0.000000	0.000000	0.000000	19.926983	0.000000	1.000000	-0.275785
0.083333	0.183332	0.000000	3	6	0	0.000000	0.000000	0.000000	19.926983	0.000000	1.000000	-0.281554
0.116666	0.183332	0.000000	4	6	0	0.000000	0.000000	0.000000	19.926983	0.000000	1.000000	-0.283980
0.149999	0.183332	0.000000	5	6	0	0.000000	0.000000	0.000000	19.926983	0.000000	1.000000	-0.284996
0.183332	0.183332	0.000000	6	6	0	0.000000	0.000000	0.000000	19.926983	0.000000	1.000000	-0.285463
0.216665	0.183332	0.000000	7	6	0	0.000000	0.000000	0.000000	19.926983	0.000000	1.000000	-0.285671
0.249998	0.183332	0.000000	8	6	0	0.000000	0.000000	0.000000	19.926983	0.000000	1.000000	-0.285758
0.283331	0.183332	0.000000	9	6	0	0.000000	0.000000	0.000000	19.926983	0.000000	1.000000	-0.285799
0.316663	0.183332	0.000000	10	6	0	0.000000	0.000000	0.000000	19.926983	0.000000	1.000000	-0.285829
0.349997	0.183332	0.000000	11	6	0	0.000000	0.000000	0.000000	19.926983	0.000000	1.000000	-0.285859
0.383329	0.183332	0.000000	12	6	0	0.000000	0.000000	0.000000	19.926983	0.000000	1.000000	-0.285893
0.416663	0.183332	0.000000	13	6	0	0.000000	0.000000	0.000000	19.926983	0.000000	1.000000	-0.285934
0.449995	0.183332	0.000000	14	6	0	0.000000	0.000000	0.000000	19.926983	0.000000	1.000000	-0.285986
0.483329	0.183332	0.000000	15	6	0	0.000000	0.000000	0.000000	19.926983	0.000000	1.000000	-0.286038
0.516662	0.183332	0.000000	16	6	0	0.000000	0.000000	0.000000	19.926983	0.000000	1.000000	-0.285978
0.549995	0.183332	0.000000	17	6	0	0.000000	0.000000	0.000000	19.926983	0.000000	1.000000	-0.285666
0.583328	0.183332	0.000000	18	6	0	0.000000	0.000000	0.000000	19.926983	0.000000	1.000000	-0.284925
0.616661	0.183332	0.000000	19	6	0	0.000000	0.000000	0.000000	19.926983	0.000000	1.000000	-0.284034
0.649994	0.183332	0.000000	20	6	0	0.000000	0.000000	0.000000	19.926983	0.000000	1.000000	-0.283958
0.683327	0.183332	0.000000	21	6	0	0.000000	0.000000	0.000000	19.926983	0.000000	1.000000	-0.285055
0.716660	0.183332	0.000000	22	6	0	0.000000	0.000000	0.000000	19.926983	0.000000	1.000000	-0.286302
0.749993	0.183332	0.000000	23	6	0	0.000000	0.000000	0.000000	19.926983	0.000000	1.000000	-0.287237
0.783326	0.183332	0.000000	24	6	0	0.000000	0.000000	0.000000	19.926983	0.000000	1.000000	-0.287811
0.816659	0.183332	0.000000	25	6	0	0.000000	0.000000	0.000000	19.926983	0.000000	1.000000	-0.288094
0.849992	0.183332	0.000000	26	6	0	0.000000	0.000000	0.000000	19.926983	0.000000	1.000000	-0.288174
0.883325	0.183332	0.000000	27	6	0	0.000000	0.000000	0.000000	19.926983	0.000000	1.000000	-0.288110
0.916658	0.183332	0.000000	28	6	0	0.000000	0.000000	0.000000	19.926983	0.000000	1.000000	-0.288043
0.949991	0.183332	0.000000	29	6	0	0.000000	0.000000	0.000000	19.926983	0.000000	1.000000	-0.288088
0.983329	0.183332	0.000000	30	6	0	0.000000	0.000000	0.000000	19.926983	0.000000	1.000000	-0.288273
1.000000	0.183332	0.000000	31	6	0	0.000000	0.000000	0.000000	19.926983	0.000000	1.000000	0.000000
0.000000	0.216665	0.000000	0	7	0	0.000000	0.000000	0.000000	19.926983	0.000000	1.000000	0.000000
0.016667	0.216665	0.000000	1	7	0	0.000000	0.000000	0.000000	19.926983	0.000000	1.000000	-0.275648
0.050000	0.216665	0.000000	2	7	0	0.000000	0.000000	0.000000	19.926983	0.000000	1.000000	-0.277208
0.083333	0.216665	0.000000	3	7	0	0.000000	0.000000	0.000000	19.926983	0.000000	1.000000	-0.281688
0.116666	0.216665	0.000000	4	7	0	0.000000	0.000000	0.000000	19.926983	0.000000	1.000000	-0.283788
0.149999	0.216665	0.000000	5	7	0	0.000000	0.000000	0.000000	19.926983	0.000000	1.000000	-0.284851
0.183332	0.216665	0.000000	6	7	0	0.000000	0.000000	0.000000	19.926983	0.000000	1.000000	-0.285442
0.216665	0.216665	0.000000	7	7	0	0.000000	0.000000	0.000000	19.926983	0.000000	1.000000	-0.285729
0.249998	0.216665	0.000000	8	7	0	0.000000	0.000000	0.000000	19.926983	0.000000	1.000000	-0.285851
0.283331	0.216665	0.000000	9	7	0	0.000000	0.000000	0.000000	19.926983	0.000000	1.000000	-0.285905
0.316663	0.216665	0.000000	10	7	0	0.000000	0.000000	0.000000	19.926983	0.000000	1.000000	-0.285938
0.349997	0.216665	0.000000	11	7	0	0.000000	0.000000	0.000000	19.926983	0.000000	1.000000	-0.285963
0.383329	0.216665	0.000000	12	7	0	0.000000	0.000000	0.000000	19.926983	0.000000	1.000000	-0.285986
0.416663	0.216665	0.000000	13	7	0	0.000000	0.000000	0.000000	19.926983	0.000000	1.000000	-0.286010
0.449995	0.216665	0.000000	14	7	0	0.000000	0.000000	0.000000	19.926983	0.000000	1.000000	-0.286031
0.483329	0.216665	0.000000	15	7	0	0.000000	0.000000	0.000000	19.926983	0.000000	1.000000	-0.285991
0.516662	0.216665	0.000000	16	7	0	0.000000	0.000000	0.000000	19.926983	0.000000	1.000000	-0.285742
0.549995	0.216665	0.000000	17	7	0	0.000000	0.000000	0.000000	19.926983	0.000000	1.000000	-0.285063
0.583328	0.216665	0.000000	18	7	0	0.000000	0.000000	0.000000	19.926983	0.000000	1.000000	-0.284062
0.616661	0.216665	0.000000	19	7	0	0.000000	0.000000	0.000000	19.926983	0.000000	1.000000	-0.283810
0.649994	0.216665	0.000000	20	7	0	0.000000	0.000000	0.000000	19.926983	0.000000	1.000000	-0.284942
0.683327	0.216665	0.000000	21	7	0	0.000000	0.000000	0.000000	19.926983	0.000000	1.000000	-0.286244
0.716660	0.216665	0.000000	22	7	0	0.000000	0.000000	0.000000	19.926983	0.000000	1.000000	-0.287212
0.749993	0.216665	0.000000	23	7	0	0.000000	0.000000	0.000000	19.926983	0.000000	1.000000	-0.287788
0.783326	0.216665	0.000000	24	7	0	0.000000	0.000000	0.000000	19.926983	0.000000	1.000000	-0.288073
0.816659	0.216665	0.000000	25	7	0	0.000000	0.000000	0.000000	19.926983	0.000000	1.000000	-0.288154
0.849992	0.216665	0.000000	26	7	0	0.000000	0.000000	0.000000	19.926983	0.000000	1.000000	-0.288082
0.883325	0.216665	0.000000	27	7	0	0.000000	0.000000	0.000000	19.926983	0.000000	1.000000	-0.287949
0.916658	0.216665	0.000000	28	7	0	0.000000	0.000000	0.000000	19.926983	0.000000	1.000000	-0.287861
0.949991	0.216665	0.000000	29	7	0	0.000000	0.000000	0.000000	19.926983	0.000000	1.000000	-0.287923
0.983329	0.216665	0.000000	30	7	0	0.000000	0.000000	0.000000	19.926983	0.000000	1.000000	-0.288147
1.000000	0.216665	0.000000	31	7	0	0.000000	0.000000	0.000000	19.926983	0.000000	1.000000	0.000000
0.000000	0.249998	0.000000	0	8	0	0.000000	0.000000	0.000000	19.926983	0.000000	1.000000	0.000000
0.016667	0.249998	0.000000	1	8	0	0.000000	0.000000	0.000000	19.926983	0.000000	1.000000	-0.279114
0.050000	0.249998	0.000000	2	8	0	0.000000	0.000000	0.000000	19.926983	0.000000	1.000000	-0.279585
0.083333	0.249998	0.000000	3	8	0	0.000000	0.000000	0.000000	19.926983	0.000000	1.000000	-0.282177
0.116666	0.249998	0.000000	4	8	0	0.000000	0.000000	0.000000	19.926983	0.000000	1.000000	-0.283744
0.149999	0.249998	0.000000	5	8	0	0.000000	0.000000	0.000000	19.926983	0.000000	1.000000	-0.284803
0.183332	0.249998	0.000000	6	8	0	0.000000	0.000000	0.000000	19.926983	0.000000	1.000000	-0.285499
0.216665	0.249998	0.000000	7	8	0	0.000000	0.000000	0.000000	19.926983	0.000000	1.000000	-0.285847
0.249998	0.249998	0.000000	8	8	0	0.000000	0.000000	0.000000	19.926983	0.000000	1.000000	-0.285990
0.283331	0.249998	0.000000	9	8	0	0.000000	0.000000	0.000000	19.926983	0.000000	1.000000	-0.286048
0.316663	0.249998	0.000000	10	8	0	0.000000	0.000000	0.000000	19.926983	0.000000	1.000000	-0.286077
0.349997	0.249998	0.000000	11	8	0	0.000000	0.000000	0.000000	19.926983	0.000000	1.000000	-0.286095
0.383329	0.249998	0.000000	12	8	0	0.000000	0.000000	0.000000	19.926983	0.000000	1.000000	-0.286103
0.416663	0.249998	0.000000	13	8	0	0.000000	0.000000	0.000000	19.926983	0.000000	1.000000	-0.286101
0.449995	0.249998	0.000000	14	8	0	0.000000	0.000000	0.000000	19.926983	0.000000	1.000000	-0.286065
0.483329	0.249998	0.000000	15	8	0	0.000000	0.000000	0.000000	19.926983	0.000000	1.000000	-0.285854
0.516662	0.249998	0.000000	16	8	0	0.000000	0.000000	0.000000	19.926983	0.000000	1.000000	-0.285291
0.549995	0.249998	0.000000	17	8	0	0.000000	0.000000	0.000000	19.926983	0.000000	1.000000	-0.284250
0.583328	0.249998	0.000000	18	8	0	0.000000	0.000000	0.000000	19.926983	0.000000	1.000000	-0.283703
0.616661	0.249998	0.000000	19	8	0	0.000000	0.000000	0.000000	19.926983	0.000000	1.000000	-0.284786
0.649994	0.249998	0.000000	20	8	0	0.000000	0.000000	0.000000	19.926983	0.000000	1.000000	-0.286139
0.683327	0.249998	0.000000	21	8	0	0.000000	0.000000	0.000000	19.926983	0.000000	1.000000	-0.287143
0.716660	0.249998	0.000000	22	8	0	0.000000	0.000000	0.000000	19.926983	0.000000	1.000000	-0.287732
0.749993	0.249998	0.000000	23	8	0	0.000000	0.000000	0.000000	19.926983	0.000000	1.000000	-0.288025
0.783326	0.249998	0.000000	24	8	0	0.000000	0.000000	0.000000	19.926983	0.000000	1.000000	-0.288112
0.816659	0.249998	0.000000	25	8	0	0.000000	0.000000	0.000000	19.926983	0.000000	1.000000	-0.288051
0.849992	0.249998	0.000000	26	8	0	0.000000	0.000000	0.000000	19.926983	0.000000	1.000000	-0.287898
0.883325	0.249998	0.000000	27	8	0	0.000000	0.000000	0.000000	19.926983	0.000000	1.000000	-0.287723
0.916658	0.249998	0.000000	28	8	0	0.000000	0.000000	0.000000	19.926983	0.000000	1.000000	-0.287622
0.949991	0.249998	0.000000	29	8	0	0.000000	0.000000	0.000000	19.926983	0.000000	1.000000	-0.287701
0.983329	0.249998	0.000000	30	8	0	0.000000	0.000000	0.000000	19.926983	0.000000	1.000000	-0.287953
1.000000	0.249998	0.000000	31	8	0	0.000000	0.000000	0.000000	19.926983	0.000000	1.000000	0.000000
0.000000	0.283331	0.000000	0	9	0	0.000000	0.000000	0.000000	19.926983	0.000000	1.000000	0.000000
0.016667	0.283331	0.000000	1	9	0	0.000000	0.000000	0.000000	19.926983	0.000000	1.000000	-0.283479
0.050000	0.283331	0.000000	2	9	0	0.000000	0.000000	0.000000	19.926983	0.000000	1.000000	-0.282844
0.083333	0.283331	0.000000	3	9	0	0.000000	0.000000	0.000000	19.926983	0.000000	1.000000	-0.283635
0.116666	0.283331	0.000000	4	9	0	0.000000	0.000000	0.000000	19.926983	0.000000	1.000000	-0.284402
0.149999	0.283331	0.000000	5	9	0	0.000000	0.000000	0.000000	19.926983	0.000000	1.000000	-0.285158
0.183332	0.283331	0.000000	6	9	0	0.000000	0.000000	0.000000	19.926983	0.000000	1.000000	-0.285745
0.216665	0.283331	0.000000	7	9	0	0.000000	0.000000	0.000000	19.926983	0.000000	1.000000	-0.286048
0.249998	0.283331	0.000000	8	9	0	0.000000	0.000000	0.000000	19.926983	0.000000	1.000000	-0.286171
0.283331	0.283331	0.000000	9	9	0	0.000000	0.000000	0.000000	19.926983	0.000000	1.000000	-0.286218
0.316663	0.283331	0.000000	10	9	0	0.000000	0.000000	0.000000	19.926983	0.000000	1.000000	-0.286239
0.349997	0.283331	0.000000	11	9	0	0.000000	0.000000	0.000000	19.926983	0.000000	1.000000	-0.286245
0.383329	0.283331	0.000000	12	9	0	0.000000	0.000000	0.000000	19.926983	0.000000	1.000000	-0.286234
0.416663	0.283331	0.000000	13	9	0	0.000000	0.000000	0.000000	19.926983	0.000000	1.000000	-0.286193