TITLE = "dt=0.100000s, t=310.000000s, nu=0.000016, Lx=1.000000, Ly=1.000000, Lz=1.000000, Nx=32, Ny=32, Nz=32 "
VARIABLES =X, Y, Z, I, J, K, U, V, W, T, Xi, FlagP, P 
ZONE F=POINT, I=32, J=32, K=32
0.000000	0.000000	0.000000	0	0	0	0.000000	0.000000	0.000000	19.913185	0.000000	1.000000	0.000000
0.016667	0.000000	0.000000	1	0	0	0.000000	0.000000	0.000000	19.905221	0.000000	1.000000	0.000000
0.050000	0.000000	0.000000	2	0	0	0.000000	0.000000	0.000000	19.905221	0.000000	1.000000	0.000000
0.083333	0.000000	0.000000	3	0	0	0.000000	0.000000	0.000000	19.905221	0.000000	1.000000	0.000000
0.116666	0.000000	0.000000	4	0	0	0.000000	0.000000	0.000000	19.905221	0.000000	1.000000	0.000000
0.149999	0.000000	0.000000	5	0	0	0.000000	0.000000	0.000000	19.905221	0.000000	1.000000	0.000000
0.183332	0.000000	0.000000	6	0	0	0.000000	0.000000	0.000000	19.905221	0.000000	1.000000	0.000000
0.216665	0.000000	0.000000	7	0	0	0.000000	0.000000	0.000000	19.905221	0.000000	1.000000	0.000000
0.249998	0.000000	0.000000	8	0	0	0.000000	0.000000	0.000000	19.905221	0.000000	1.000000	0.000000
0.283331	0.000000	0.000000	9	0	0	0.000000	0.000000	0.000000	19.905221	0.000000	1.000000	0.000000
0.316663	0.000000	0.000000	10	0	0	0.000000	0.000000	0.000000	19.905221	0.000000	1.000000	0.000000
0.349997	0.000000	0.000000	11	0	0	0.000000	0.000000	0.000000	19.905221	0.000000	1.000000	0.000000
0.383329	0.000000	0.000000	12	0	0	0.000000	0.000000	0.000000	19.905221	0.000000	1.000000	0.000000
0.416663	0.000000	0.000000	13	0	0	0.000000	0.000000	0.000000	19.905221	0.000000	1.000000	0.000000
0.449995	0.000000	0.000000	14	0	0	0.000000	0.000000	0.000000	19.905221	0.000000	1.000000	0.000000
0.483329	0.000000	0.000000	15	0	0	0.000000	0.000000	0.000000	19.905221	0.000000	1.000000	0.000000
0.516661	0.000000	0.000000	16	0	0	0.000000	0.000000	0.000000	19.905221	0.000000	1.000000	0.000000
0.549995	0.000000	0.000000	17	0	0	0.000000	0.000000	0.000000	19.905221	0.000000	1.000000	0.000000
0.583328	0.000000	0.000000	18	0	0	0.000000	0.000000	0.000000	19.905221	0.000000	1.000000	0.000000
0.616661	0.000000	0.000000	19	0	0	0.000000	0.000000	0.000000	19.905221	0.000000	1.000000	0.000000
0.649994	0.000000	0.000000	20	0	0	0.000000	0.000000	0.000000	19.905221	0.000000	1.000000	0.000000
0.683327	0.000000	0.000000	21	0	0	0.000000	0.000000	0.000000	19.905221	0.000000	1.000000	0.000000
0.716660	0.000000	0.000000	22	0	0	0.000000	0.000000	0.000000	19.905221	0.000000	1.000000	0.000000
0.749993	0.000000	0.000000	23	0	0	0.000000	0.000000	0.000000	19.905221	0.000000	1.000000	0.000000
0.783326	0.000000	0.000000	24	0	0	0.000000	0.000000	0.000000	19.905221	0.000000	1.000000	0.000000
0.816659	0.000000	0.000000	25	0	0	0.000000	0.000000	0.000000	19.905221	0.000000	1.000000	0.000000
0.849992	0.000000	0.000000	26	0	0	0.000000	0.000000	0.000000	19.905221	0.000000	1.000000	0.000000
0.883325	0.000000	0.000000	27	0	0	0.000000	0.000000	0.000000	19.905221	0.000000	1.000000	0.000000
0.916658	0.000000	0.000000	28	0	0	0.000000	0.000000	0.000000	19.905221	0.000000	1.000000	0.000000
0.949991	0.000000	0.000000	29	0	0	0.000000	0.000000	0.000000	19.905221	0.000000	1.000000	0.000000
0.983329	0.000000	0.000000	30	0	0	0.000000	0.000000	0.000000	19.905221	0.000000	1.000000	0.000000
1.000000	0.000000	0.000000	31	0	0	0.000000	0.000000	0.000000	19.913185	0.000000	1.000000	0.000000
0.000000	0.016667	0.000000	0	1	0	0.000000	0.000000	0.000000	19.929113	0.000000	1.000000	0.000000
0.016667	0.016667	0.000000	1	1	0	0.000000	0.000000	0.000000	19.929113	0.000000	1.000000	-0.273504
0.050000	0.016667	0.000000	2	1	0	0.000000	0.000000	0.000000	19.929113	0.000000	1.000000	-0.272920
0.083333	0.016667	0.000000	3	1	0	0.000000	0.000000	0.000000	19.929113	0.000000	1.000000	-0.277102
0.116666	0.016667	0.000000	4	1	0	0.000000	0.000000	0.000000	19.929113	0.000000	1.000000	-0.280342
0.149999	0.016667	0.000000	5	1	0	0.000000	0.000000	0.000000	19.929113	0.000000	1.000000	-0.282362
0.183332	0.016667	0.000000	6	1	0	0.000000	0.000000	0.000000	19.929113	0.000000	1.000000	-0.283499
0.216665	0.016667	0.000000	7	1	0	0.000000	0.000000	0.000000	19.929113	0.000000	1.000000	-0.284113
0.249998	0.016667	0.000000	8	1	0	0.000000	0.000000	0.000000	19.929113	0.000000	1.000000	-0.284457
0.283331	0.016667	0.000000	9	1	0	0.000000	0.000000	0.000000	19.929113	0.000000	1.000000	-0.284674
0.316663	0.016667	0.000000	10	1	0	0.000000	0.000000	0.000000	19.929113	0.000000	1.000000	-0.284836
0.349997	0.016667	0.000000	11	1	0	0.000000	0.000000	0.000000	19.929113	0.000000	1.000000	-0.284974
0.383329	0.016667	0.000000	12	1	0	0.000000	0.000000	0.000000	19.929113	0.000000	1.000000	-0.285099
0.416663	0.016667	0.000000	13	1	0	0.000000	0.000000	0.000000	19.929113	0.000000	1.000000	-0.285216
0.449995	0.016667	0.000000	14	1	0	0.000000	0.000000	0.000000	19.929113	0.000000	1.000000	-0.285328
0.483329	0.016667	0.000000	15	1	0	0.000000	0.000000	0.000000	19.929113	0.000000	1.000000	-0.285441
0.516661	0.016667	0.000000	16	1	0	0.000000	0.000000	0.000000	19.929113	0.000000	1.000000	-0.285561
0.549995	0.016667	0.000000	17	1	0	0.000000	0.000000	0.000000	19.929113	0.000000	1.000000	-0.285691
0.583328	0.016667	0.000000	18	1	0	0.000000	0.000000	0.000000	19.929113	0.000000	1.000000	-0.285836
0.616661	0.016667	0.000000	19	1	0	0.000000	0.000000	0.000000	19.929113	0.000000	1.000000	-0.285991
0.649994	0.016667	0.000000	20	1	0	0.000000	0.000000	0.000000	19.929113	0.000000	1.000000	-0.286145
0.683327	0.016667	0.000000	21	1	0	0.000000	0.000000	0.000000	19.929113	0.000000	1.000000	-0.286280
0.716660	0.016667	0.000000	22	1	0	0.000000	0.000000	0.000000	19.929113	0.000000	1.000000	-0.286370
0.749993	0.016667	0.000000	23	1	0	0.000000	0.000000	0.000000	19.929113	0.000000	1.000000	-0.286378
0.783326	0.016667	0.000000	24	1	0	0.000000	0.000000	0.000000	19.929113	0.000000	1.000000	-0.286237
0.816659	0.016667	0.000000	25	1	0	0.000000	0.000000	0.000000	19.929113	0.000000	1.000000	-0.285829
0.849992	0.016667	0.000000	26	1	0	0.000000	0.000000	0.000000	19.929113	0.000000	1.000000	-0.284975
0.883325	0.016667	0.000000	27	1	0	0.000000	0.000000	0.000000	19.929113	0.000000	1.000000	-0.283505
0.916658	0.016667	0.000000	28	1	0	0.000000	0.000000	0.000000	19.929113	0.000000	1.000000	-0.281474
0.949991	0.016667	0.000000	29	1	0	0.000000	0.000000	0.000000	19.929113	0.000000	1.000000	-0.279283
0.983329	0.016667	0.000000	30	1	0	0.000000	0.000000	0.000000	19.929113	0.000000	1.000000	-0.277638
1.000000	0.016667	0.000000	31	1	0	0.000000	0.000000	0.000000	19.929113	0.000000	1.000000	0.000000
0.000000	0.050000	0.000000	0	2	0	0.000000	0.000000	0.000000	19.929113	0.000000	1.000000	0.000000
0.016667	0.050000	0.000000	1	2	0	0.000000	0.000000	0.000000	19.929113	0.000000	1.000000	-0.270427
0.050000	0.050000	0.000000	2	2	0	0.000000	0.000000	0.000000	19.929113	0.000000	1.000000	-0.271095
0.083333	0.050000	0.000000	3	2	0	0.000000	0.000000	0.000000	19.929113	0.000000	1.000000	-0.276799
0.116666	0.050000	0.000000	4	2	0	0.000000	0.000000	0.000000	19.929113	0.000000	1.000000	-0.280527
0.149999	0.050000	0.000000	5	2	0	0.000000	0.000000	0.000000	19.929113	0.000000	1.000000	-0.282662
0.183332	0.050000	0.000000	6	2	0	0.000000	0.000000	0.000000	19.929113	0.000000	1.000000	-0.283790
0.216665	0.050000	0.000000	7	2	0	0.000000	0.000000	0.000000	19.929113	0.000000	1.000000	-0.284367
0.249998	0.050000	0.000000	8	2	0	0.000000	0.000000	0.000000	19.929113	0.000000	1.000000	-0.284673
0.283331	0.050000	0.000000	9	2	0	0.000000	0.000000	0.000000	19.929113	0.000000	1.000000	-0.284857
0.316663	0.050000	0.000000	10	2	0	0.000000	0.000000	0.000000	19.929113	0.000000	1.000000	-0.284989
0.349997	0.050000	0.000000	11	2	0	0.000000	0.000000	0.000000	19.929113	0.000000	1.000000	-0.285098
0.383329	0.050000	0.000000	12	2	0	0.000000	0.000000	0.000000	19.929113	0.000000	1.000000	-0.285196
0.416663	0.050000	0.000000	13	2	0	0.000000	0.000000	0.000000	19.929113	0.000000	1.000000	-0.285286
0.449995	0.050000	0.000000	14	2	0	0.000000	0.000000	0.000000	19.929113	0.000000	1.000000	-0.285372
0.483329	0.050000	0.000000	15	2	0	0.000000	0.000000	0.000000	19.929113	0.000000	1.000000	-0.285461
0.516661	0.050000	0.000000	16	2	0	0.000000	0.000000	0.000000	19.929113	0.000000	1.000000	-0.285558
0.549995	0.050000	0.000000	17	2	0	0.000000	0.000000	0.000000	19.929113	0.000000	1.000000	-0.285670
0.583328	0.050000	0.000000	18	2	0	0.000000	0.000000	0.000000	19.929113	0.000000	1.000000	-0.285800
0.616661	0.050000	0.000000	19	2	0	0.000000	0.000000	0.000000	19.929113	0.000000	1.000000	-0.285945
0.649994	0.050000	0.000000	20	2	0	0.000000	0.000000	0.000000	19.929113	0.000000	1.000000	-0.286093
0.683327	0.050000	0.000000	21	2	0	0.000000	0.000000	0.000000	19.929113	0.000000	1.000000	-0.286228
0.716660	0.050000	0.000000	22	2	0	0.000000	0.000000	0.000000	19.929113	0.000000	1.000000	-0.286326
0.749993	0.050000	0.000000	23	2	0	0.000000	0.000000	0.000000	19.929113	0.000000	1.000000	-0.286358
0.783326	0.050000	0.000000	24	2	0	0.000000	0.000000	0.000000	19.929113	0.000000	1.000000	-0.286272
0.816659	0.050000	0.000000	25	2	0	0.000000	0.000000	0.000000	19.929113	0.000000	1.000000	-0.285949
0.849992	0.050000	0.000000	26	2	0	0.000000	0.000000	0.000000	19.929113	0.000000	1.000000	-0.285221
0.883325	0.050000	0.000000	27	2	0	0.000000	0.000000	0.000000	19.929113	0.000000	1.000000	-0.283862
0.916658	0.050000	0.000000	28	2	0	0.000000	0.000000	0.000000	19.929113	0.000000	1.000000	-0.281855
0.949991	0.050000	0.000000	29	2	0	0.000000	0.000000	0.000000	19.929113	0.000000	1.000000	-0.279587
0.983329	0.050000	0.000000	30	2	0	0.000000	0.000000	0.000000	19.929113	0.000000	1.000000	-0.277705
1.000000	0.050000	0.000000	31	2	0	0.000000	0.000000	0.000000	19.929113	0.000000	1.000000	0.000000
0.000000	0.083333	0.000000	0	3	0	0.000000	0.000000	0.000000	19.929113	0.000000	1.000000	0.000000
0.016667	0.083333	0.000000	1	3	0	0.000000	0.000000	0.000000	19.929113	0.000000	1.000000	-0.267760
0.050000	0.083333	0.000000	2	3	0	0.000000	0.000000	0.000000	19.929113	0.000000	1.000000	-0.268826
0.083333	0.083333	0.000000	3	3	0	0.000000	0.000000	0.000000	19.929113	0.000000	1.000000	-0.275910
0.116666	0.083333	0.000000	4	3	0	0.000000	0.000000	0.000000	19.929113	0.000000	1.000000	-0.280252
0.149999	0.083333	0.000000	5	3	0	0.000000	0.000000	0.000000	19.929113	0.000000	1.000000	-0.282579
0.183332	0.083333	0.000000	6	3	0	0.000000	0.000000	0.000000	19.929113	0.000000	1.000000	-0.283747
0.216665	0.083333	0.000000	7	3	0	0.000000	0.000000	0.000000	19.929113	0.000000	1.000000	-0.284328
0.249998	0.083333	0.000000	8	3	0	0.000000	0.000000	0.000000	19.929113	0.000000	1.000000	-0.284636
0.283331	0.083333	0.000000	9	3	0	0.000000	0.000000	0.000000	19.929113	0.000000	1.000000	-0.284822
0.316663	0.083333	0.000000	10	3	0	0.000000	0.000000	0.000000	19.929113	0.000000	1.000000	-0.284957
0.349997	0.083333	0.000000	11	3	0	0.000000	0.000000	0.000000	19.929113	0.000000	1.000000	-0.285067
0.383329	0.083333	0.000000	12	3	0	0.000000	0.000000	0.000000	19.929113	0.000000	1.000000	-0.285163
0.416663	0.083333	0.000000	13	3	0	0.000000	0.000000	0.000000	19.929113	0.000000	1.000000	-0.285250
0.449995	0.083333	0.000000	14	3	0	0.000000	0.000000	0.000000	19.929113	0.000000	1.000000	-0.285331
0.483329	0.083333	0.000000	15	3	0	0.000000	0.000000	0.000000	19.929113	0.000000	1.000000	-0.285414
0.516661	0.083333	0.000000	16	3	0	0.000000	0.000000	0.000000	19.929113	0.000000	1.000000	-0.285505
0.549995	0.083333	0.000000	17	3	0	0.000000	0.000000	0.000000	19.929113	0.000000	1.000000	-0.285614
0.583328	0.083333	0.000000	18	3	0	0.000000	0.000000	0.000000	19.929113	0.000000	1.000000	-0.285743
0.616661	0.083333	0.000000	19	3	0	0.000000	0.000000	0.000000	19.929113	0.000000	1.000000	-0.285891
0.649994	0.083333	0.000000	20	3	0	0.000000	0.000000	0.000000	19.929113	0.000000	1.000000	-0.286044
0.683327	0.083333	0.000000	21	3	0	0.000000	0.000000	0.000000	19.929113	0.000000	1.000000	-0.286185
0.716660	0.083333	0.000000	22	3	0	0.000000	0.000000	0.000000	19.929113	0.000000	1.000000	-0.286294
0.749993	0.083333	0.000000	23	3	0	0.000000	0.000000	0.000000	19.929113	0.000000	1.000000	-0.286348
0.783326	0.083333	0.000000	24	3	0	0.000000	0.000000	0.000000	19.929113	0.000000	1.000000	-0.286308
0.816659	0.083333	0.000000	25	3	0	0.000000	0.000000	0.000000	19.929113	0.000000	1.000000	-0.286069
0.849992	0.083333	0.000000	26	3	0	0.000000	0.000000	0.000000	19.929113	0.000000	1.000000	-0.285449
0.883325	0.083333	0.000000	27	3	0	0.000000	0.000000	0.000000	19.929113	0.000000	1.000000	-0.284189
0.916658	0.083333	0.000000	28	3	0	0.000000	0.000000	0.000000	19.929113	0.000000	1.000000	-0.282203
0.949991	0.083333	0.000000	29	3	0	0.000000	0.000000	0.000000	19.929113	0.000000	1.000000	-0.279882
0.983329	0.083333	0.000000	30	3	0	0.000000	0.000000	0.000000	19.929113	0.000000	1.000000	-0.277989
1.000000	0.083333	0.000000	31	3	0	0.000000	0.000000	0.000000	19.929113	0.000000	1.000000	0.000000
0.000000	0.116666	0.000000	0	4	0	0.000000	0.000000	0.000000	19.929113	0.000000	1.000000	0.000000
0.016667	0.116666	0.000000	1	4	0	0.000000	0.000000	0.000000	19.929113	0.000000	1.000000	-0.265724
0.050000	0.116666	0.000000	2	4	0	0.000000	0.000000	0.000000	19.929113	0.000000	1.000000	-0.267123
0.083333	0.116666	0.000000	3	4	0	0.000000	0.000000	0.000000	19.929113	0.000000	1.000000	-0.275400
0.116666	0.116666	0.000000	4	4	0	0.000000	0.000000	0.000000	19.929113	0.000000	1.000000	-0.280197
0.149999	0.116666	0.000000	5	4	0	0.000000	0.000000	0.000000	19.929113	0.000000	1.000000	-0.282617
0.183332	0.116666	0.000000	6	4	0	0.000000	0.000000	0.000000	19.929113	0.000000	1.000000	-0.283774
0.216665	0.116666	0.000000	7	4	0	0.000000	0.000000	0.000000	19.929113	0.000000	1.000000	-0.284334
0.249998	0.116666	0.000000	8	4	0	0.000000	0.000000	0.000000	19.929113	0.000000	1.000000	-0.284629
0.283331	0.116666	0.000000	9	4	0	0.000000	0.000000	0.000000	19.929113	0.000000	1.000000	-0.284810
0.316663	0.116666	0.000000	10	4	0	0.000000	0.000000	0.000000	19.929113	0.000000	1.000000	-0.284942
0.349997	0.116666	0.000000	11	4	0	0.000000	0.000000	0.000000	19.929113	0.000000	1.000000	-0.285052
0.383329	0.116666	0.000000	12	4	0	0.000000	0.000000	0.000000	19.929113	0.000000	1.000000	-0.285147
0.416663	0.116666	0.000000	13	4	0	0.000000	0.000000	0.000000	19.929113	0.000000	1.000000	-0.285231
0.449995	0.116666	0.000000	14	4	0	0.000000	0.000000	0.000000	19.929113	0.000000	1.000000	-0.285309
0.483329	0.116666	0.000000	15	4	0	0.000000	0.000000	0.000000	19.929113	0.000000	1.000000	-0.285386
0.516661	0.116666	0.000000	16	4	0	0.000000	0.000000	0.000000	19.929113	0.000000	1.000000	-0.285475
0.549995	0.116666	0.000000	17	4	0	0.000000	0.000000	0.000000	19.929113	0.000000	1.000000	-0.285585
0.583328	0.116666	0.000000	18	4	0	0.000000	0.000000	0.000000	19.929113	0.000000	1.000000	-0.285720
0.616661	0.116666	0.000000	19	4	0	0.000000	0.000000	0.000000	19.929113	0.000000	1.000000	-0.285875
0.649994	0.116666	0.000000	20	4	0	0.000000	0.000000	0.000000	19.929113	0.000000	1.000000	-0.286036
0.683327	0.116666	0.000000	21	4	0	0.000000	0.000000	0.000000	19.929113	0.000000	1.000000	-0.286185
0.716660	0.116666	0.000000	22	4	0	0.000000	0.000000	0.000000	19.929113	0.000000	1.000000	-0.286302
0.749993	0.116666	0.000000	23	4	0	0.000000	0.000000	0.000000	19.929113	0.000000	1.000000	-0.286367
0.783326	0.116666	0.000000	24	4	0	0.000000	0.000000	0.000000	19.929113	0.000000	1.000000	-0.286348
0.816659	0.116666	0.000000	25	4	0	0.000000	0.000000	0.000000	19.929113	0.000000	1.000000	-0.286140
0.849992	0.116666	0.000000	26	4	0	0.000000	0.000000	0.000000	19.929113	0.000000	1.000000	-0.285575
0.883325	0.116666	0.000000	27	4	0	0.000000	0.000000	0.000000	19.929113	0.000000	1.000000	-0.284363
0.916658	0.116666	0.000000	28	4	0	0.000000	0.000000	0.000000	19.929113	0.000000	1.000000	-0.282384
0.949991	0.116666	0.000000	29	4	0	0.000000	0.000000	0.000000	19.929113	0.000000	1.000000	-0.279998
0.983329	0.116666	0.000000	30	4	0	0.000000	0.000000	0.000000	19.929113	0.000000	1.000000	-0.278061
1.000000	0.116666	0.000000	31	4	0	0.000000	0.000000	0.000000	19.929113	0.000000	1.000000	0.000000
0.000000	0.149999	0.000000	0	5	0	0.000000	0.000000	0.000000	19.929113	0.000000	1.000000	0.000000
0.016667	0.149999	0.000000	1	5	0	0.000000	0.000000	0.000000	19.929113	0.000000	1.000000	-0.264503
0.050000	0.149999	0.000000	2	5	0	0.000000	0.000000	0.000000	19.929113	0.000000	1.000000	-0.266174
0.083333	0.149999	0.000000	3	5	0	0.000000	0.000000	0.000000	19.929113	0.000000	1.000000	-0.275339
0.116666	0.149999	0.000000	4	5	0	0.000000	0.000000	0.000000	19.929113	0.000000	1.000000	-0.280368
0.149999	0.149999	0.000000	5	5	0	0.000000	0.000000	0.000000	19.929113	0.000000	1.000000	-0.282776
0.183332	0.149999	0.000000	6	5	0	0.000000	0.000000	0.000000	19.929113	0.000000	1.000000	-0.283883
0.216665	0.149999	0.000000	7	5	0	0.000000	0.000000	0.000000	19.929113	0.000000	1.000000	-0.284404
0.249998	0.149999	0.000000	8	5	0	0.000000	0.000000	0.000000	19.929113	0.000000	1.000000	-0.284674
0.283331	0.149999	0.000000	9	5	0	0.000000	0.000000	0.000000	19.929113	0.000000	1.000000	-0.284839
0.316663	0.149999	0.000000	10	5	0	0.000000	0.000000	0.000000	19.929113	0.000000	1.000000	-0.284961
0.349997	0.149999	0.000000	11	5	0	0.000000	0.000000	0.000000	19.929113	0.000000	1.000000	-0.285063
0.383329	0.149999	0.000000	12	5	0	0.000000	0.000000	0.000000	19.929113	0.000000	1.000000	-0.285152
0.416663	0.149999	0.000000	13	5	0	0.000000	0.000000	0.000000	19.929113	0.000000	1.000000	-0.285229
0.449995	0.149999	0.000000	14	5	0	0.000000	0.000000	0.000000	19.929113	0.000000	1.000000	-0.285296
0.483329	0.149999	0.000000	15	5	0	0.000000	0.000000	0.000000	19.929113	0.000000	1.000000	-0.285364
0.516661	0.149999	0.000000	16	5	0	0.000000	0.000000	0.000000	19.929113	0.000000	1.000000	-0.285447
0.549995	0.149999	0.000000	17	5	0	0.000000	0.000000	0.000000	19.929113	0.000000	1.000000	-0.285558
0.583328	0.149999	0.000000	18	5	0	0.000000	0.000000	0.000000	19.929113	0.000000	1.000000	-0.285701
0.616661	0.149999	0.000000	19	5	0	0.000000	0.000000	0.000000	19.929113	0.000000	1.000000	-0.285867
0.649994	0.149999	0.000000	20	5	0	0.000000	0.000000	0.000000	19.929113	0.000000	1.000000	-0.286038
0.683327	0.149999	0.000000	21	5	0	0.000000	0.000000	0.000000	19.929113	0.000000	1.000000	-0.286196
0.716660	0.149999	0.000000	22	5	0	0.000000	0.000000	0.000000	19.929113	0.000000	1.000000	-0.286319
0.749993	0.149999	0.000000	23	5	0	0.000000	0.000000	0.000000	19.929113	0.000000	1.000000	-0.286389
0.783326	0.149999	0.000000	24	5	0	0.000000	0.000000	0.000000	19.929113	0.000000	1.000000	-0.286368
0.816659	0.149999	0.000000	25	5	0	0.000000	0.000000	0.000000	19.929113	0.000000	1.000000	-0.286154
0.849992	0.149999	0.000000	26	5	0	0.000000	0.000000	0.000000	19.929113	0.000000	1.000000	-0.285580
0.883325	0.149999	0.000000	27	5	0	0.000000	0.000000	0.000000	19.929113	0.000000	1.000000	-0.284361
0.916658	0.149999	0.000000	28	5	0	0.000000	0.000000	0.000000	19.929113	0.000000	1.000000	-0.282388
0.949991	0.149999	0.000000	29	5	0	0.000000	0.000000	0.000000	19.929113	0.000000	1.000000	-0.279979
0.983329	0.149999	0.000000	30	5	0	0.000000	0.000000	0.000000	19.929113	0.000000	1.000000	-0.277960
1.000000	0.149999	0.000000	31	5	0	0.000000	0.000000	0.000000	19.929113	0.000000	1.000000	0.000000
0.000000	0.183332	0.000000	0	6	0	0.000000	0.000000	0.000000	19.929113	0.000000	1.000000	0.000000
0.016667	0.183332	0.000000	1	6	0	0.000000	0.000000	0.000000	19.929113	0.000000	1.000000	-0.264145
0.050000	0.183332	0.000000	2	6	0	0.000000	0.000000	0.000000	19.929113	0.000000	1.000000	-0.265982
0.083333	0.183332	0.000000	3	6	0	0.000000	0.000000	0.000000	19.929113	0.000000	1.000000	-0.275654
0.116666	0.183332	0.000000	4	6	0	0.000000	0.000000	0.000000	19.929113	0.000000	1.000000	-0.280707
0.149999	0.183332	0.000000	5	6	0	0.000000	0.000000	0.000000	19.929113	0.000000	1.000000	-0.283028
0.183332	0.183332	0.000000	6	6	0	0.000000	0.000000	0.000000	19.929113	0.000000	1.000000	-0.284061
0.216665	0.183332	0.000000	7	6	0	0.000000	0.000000	0.000000	19.929113	0.000000	1.000000	-0.284536
0.249998	0.183332	0.000000	8	6	0	0.000000	0.000000	0.000000	19.929113	0.000000	1.000000	-0.284775
0.283331	0.183332	0.000000	9	6	0	0.000000	0.000000	0.000000	19.929113	0.000000	1.000000	-0.284915
0.316663	0.183332	0.000000	10	6	0	0.000000	0.000000	0.000000	19.929113	0.000000	1.000000	-0.285016
0.349997	0.183332	0.000000	11	6	0	0.000000	0.000000	0.000000	19.929113	0.000000	1.000000	-0.285103
0.383329	0.183332	0.000000	12	6	0	0.000000	0.000000	0.000000	19.929113	0.000000	1.000000	-0.285181
0.416663	0.183332	0.000000	13	6	0	0.000000	0.000000	0.000000	19.929113	0.000000	1.000000	-0.285244
0.449995	0.183332	0.000000	14	6	0	0.000000	0.000000	0.000000	19.929113	0.000000	1.000000	-0.285293
0.483329	0.183332	0.000000	15	6	0	0.000000	0.000000	0.000000	19.929113	0.000000	1.000000	-0.285340
0.516661	0.183332	0.000000	16	6	0	0.000000	0.000000	0.000000	19.929113	0.000000	1.000000	-0.285412
0.549995	0.183332	0.000000	17	6	0	0.000000	0.000000	0.000000	19.929113	0.000000	1.000000	-0.285523
0.583328	0.183332	0.000000	18	6	0	0.000000	0.000000	0.000000	19.929113	0.000000	1.000000	-0.285674
0.616661	0.183332	0.000000	19	6	0	0.000000	0.000000	0.000000	19.929113	0.000000	1.000000	-0.285850
0.649994	0.183332	0.000000	20	6	0	0.000000	0.000000	0.000000	19.929113	0.000000	1.000000	-0.286032
0.683327	0.183332	0.000000	21	6	0	0.000000	0.000000	0.000000	19.929113	0.000000	1.000000	-0.286197
0.716660	0.183332	0.000000	22	6	0	0.000000	0.000000	0.000000	19.929113	0.000000	1.000000	-0.286324
0.749993	0.183332	0.000000	23	6	0	0.000000	0.000000	0.000000	19.929113	0.000000	1.000000	-0.286390
0.783326	0.183332	0.000000	24	6	0	0.000000	0.000000	0.000000	19.929113	0.000000	1.000000	-0.286336
0.816659	0.183332	0.000000	25	6	0	0.000000	0.000000	0.000000	19.929113	0.000000	1.000000	-0.286076
0.849992	0.183332	0.000000	26	6	0	0.000000	0.000000	0.000000	19.929113	0.000000	1.000000	-0.285431
0.883325	0.183332	0.000000	27	6	0	0.000000	0.000000	0.000000	19.929113	0.000000	1.000000	-0.284170
0.916658	0.183332	0.000000	28	6	0	0.000000	0.000000	0.000000	19.929113	0.000000	1.000000	-0.282247
0.949991	0.183332	0.000000	29	6	0	0.000000	0.000000	0.000000	19.929113	0.000000	1.000000	-0.279920
0.983329	0.183332	0.000000	30	6	0	0.000000	0.000000	0.000000	19.929113	0.000000	1.000000	-0.277771
1.000000	0.183332	0.000000	31	6	0	0.000000	0.000000	0.000000	19.929113	0.000000	1.000000	0.000000
0.000000	0.216665	0.000000	0	7	0	0.000000	0.000000	0.000000	19.929113	0.000000	1.000000	0.000000
0.016667	0.216665	0.000000	1	7	0	0.000000	0.000000	0.000000	19.929113	0.000000	1.000000	-0.264380
0.050000	0.216665	0.000000	2	7	0	0.000000	0.000000	0.000000	19.929113	0.000000	1.000000	-0.266340
0.083333	0.216665	0.000000	3	7	0	0.000000	0.000000	0.000000	19.929113	0.000000	1.000000	-0.276194
0.116666	0.216665	0.000000	4	7	0	0.000000	0.000000	0.000000	19.929113	0.000000	1.000000	-0.281136
0.149999	0.216665	0.000000	5	7	0	0.000000	0.000000	0.000000	19.929113	0.000000	1.000000	-0.283335
0.183332	0.216665	0.000000	6	7	0	0.000000	0.000000	0.000000	19.929113	0.000000	1.000000	-0.284294
0.216665	0.216665	0.000000	7	7	0	0.000000	0.000000	0.000000	19.929113	0.000000	1.000000	-0.284727
0.249998	0.216665	0.000000	8	7	0	0.000000	0.000000	0.000000	19.929113	0.000000	1.000000	-0.284938
0.283331	0.216665	0.000000	9	7	0	0.000000	0.000000	0.000000	19.929113	0.000000	1.000000	-0.285055
0.316663	0.216665	0.000000	10	7	0	0.000000	0.000000	0.000000	19.929113	0.000000	1.000000	-0.285135
0.349997	0.216665	0.000000	11	7	0	0.000000	0.000000	0.000000	19.929113	0.000000	1.000000	-0.285204
0.383329	0.216665	0.000000	12	7	0	0.000000	0.000000	0.000000	19.929113	0.000000	1.000000	-0.285265
0.416663	0.216665	0.000000	13	7	0	0.000000	0.000000	0.000000	19.929113	0.000000	1.000000	-0.285308
0.449995	0.216665	0.000000	14	7	0	0.000000	0.000000	0.000000	19.929113	0.000000	1.000000	-0.285324
0.483329	0.216665	0.000000	15	7	0	0.000000	0.000000	0.000000	19.929113	0.000000	1.000000	-0.285334
0.516661	0.216665	0.000000	16	7	0	0.000000	0.000000	0.000000	19.929113	0.000000	1.000000	-0.285381
0.549995	0.216665	0.000000	17	7	0	0.000000	0.000000	0.000000	19.929113	0.000000	1.000000	-0.285484
0.583328	0.216665	0.000000	18	7	0	0.000000	0.000000	0.000000	19.929113	0.000000	1.000000	-0.285638
0.616661	0.216665	0.000000	19	7	0	0.000000	0.000000	0.000000	19.929113	0.000000	1.000000	-0.285822
0.649994	0.216665	0.000000	20	7	0	0.000000	0.000000	0.000000	19.929113	0.000000	1.000000	-0.286010
0.683327	0.216665	0.000000	21	7	0	0.000000	0.000000	0.000000	19.929113	0.000000	1.000000	-0.286178
0.716660	0.216665	0.000000	22	7	0	0.000000	0.000000	0.000000	19.929113	0.000000	1.000000	-0.286299
0.749993	0.216665	0.000000	23	7	0	0.000000	0.000000	0.000000	19.929113	0.000000	1.000000	-0.286331
0.783326	0.216665	0.000000	24	7	0	0.000000	0.000000	0.000000	19.929113	0.000000	1.000000	-0.286208
0.816659	0.216665	0.000000	25	7	0	0.000000	0.000000	0.000000	19.929113	0.000000	1.000000	-0.285845
0.849992	0.216665	0.000000	26	7	0	0.000000	0.000000	0.000000	19.929113	0.000000	1.000000	-0.285067
0.883325	0.216665	0.000000	27	7	0	0.000000	0.000000	0.000000	19.929113	0.000000	1.000000	-0.283753
0.916658	0.216665	0.000000	28	7	0	0.000000	0.000000	0.000000	19.929113	0.000000	1.000000	-0.282004
0.949991	0.216665	0.000000	29	7	0	0.000000	0.000000	0.000000	19.929113	0.000000	1.000000	-0.280032
0.983329	0.216665	0.000000	30	7	0	0.000000	0.000000	0.000000	19.929113	0.000000	1.000000	-0.277839
1.000000	0.216665	0.000000	31	7	0	0.000000	0.000000	0.000000	19.929113	0.000000	1.000000	0.000000
0.000000	0.249998	0.000000	0	8	0	0.000000	0.000000	0.000000	19.929113	0.000000	1.000000	0.000000
0.016667	0.249998	0.000000	1	8	0	0.000000	0.000000	0.000000	19.929113	0.000000	1.000000	-0.265013
0.050000	0.249998	0.000000	2	8	0	0.000000	0.000000	0.000000	19.929113	0.000000	1.000000	-0.267065
0.083333	0.249998	0.000000	3	8	0	0.000000	0.000000	0.000000	19.929113	0.000000	1.000000	-0.276847
0.116666	0.249998	0.000000	4	8	0	0.000000	0.000000	0.000000	19.929113	0.000000	1.000000	-0.281599
0.149999	0.249998	0.000000	5	8	0	0.000000	0.000000	0.000000	19.929113	0.000000	1.000000	-0.283664
0.183332	0.249998	0.000000	6	8	0	0.000000	0.000000	0.000000	19.929113	0.000000	1.000000	-0.284555
0.216665	0.249998	0.000000	7	8	0	0.000000	0.000000	0.000000	19.929113	0.000000	1.000000	-0.284959
0.249998	0.249998	0.000000	8	8	0	0.000000	0.000000	0.000000	19.929113	0.000000	1.000000	-0.285164
0.283331	0.249998	0.000000	9	8	0	0.000000	0.000000	0.000000	19.929113	0.000000	1.000000	-0.285274
0.316663	0.249998	0.000000	10	8	0	0.000000	0.000000	0.000000	19.929113	0.000000	1.000000	-0.285342
0.349997	0.249998	0.000000	11	8	0	0.000000	0.000000	0.000000	19.929113	0.000000	1.000000	-0.285394
0.383329	0.249998	0.000000	12	8	0	0.000000	0.000000	0.000000	19.929113	0.000000	1.000000	-0.285436
0.416663	0.249998	0.000000	13	8	0	0.000000	0.000000	0.000000	19.929113	0.000000	1.000000	-0.285449
0.449995	0.249998	0.000000	14	8	0	0.000000	0.000000	0.000000	19.929113	0.000000	1.000000	-0.285421
0.483329	0.249998	0.000000	15	8	0	0.000000	0.000000	0.000000	19.929113	0.000000	1.000000	-0.285380
0.516661	0.249998	0.000000	16	8	0	0.000000	0.000000	0.000000	19.929113	0.000000	1.000000	-0.285386
0.549995	0.249998	0.000000	17	8	0	0.000000	0.000000	0.000000	19.929113	0.000000	1.000000	-0.285466
0.583328	0.249998	0.000000	18	8	0	0.000000	0.000000	0.000000	19.929113	0.000000	1.000000	-0.285610
0.616661	0.249998	0.000000	19	8	0	0.000000	0.000000	0.000000	19.929113	0.000000	1.000000	-0.285789
0.649994	0.249998	0.000000	20	8	0	0.000000	0.000000	0.000000	19.929113	0.000000	1.000000	-0.285969
0.683327	0.249998	0.000000	21	8	0	0.000000	0.000000	0.000000	19.929113	0.000000	1.000000	-0.286120
0.716660	0.249998	0.000000	22	8	0	0.000000	0.000000	0.000000	19.929113	0.000000	1.000000	-0.286206
0.749993	0.249998	0.000000	23	8	0	0.000000	0.000000	0.000000	19.929113	0.000000	1.000000	-0.286156
0.783326	0.249998	0.000000	24	8	0	0.000000	0.000000	0.000000	19.929113	0.000000	1.000000	-0.285919
0.816659	0.249998	0.000000	25	8	0	0.000000	0.000000	0.000000	19.929113	0.000000	1.000000	-0.285371
0.849992	0.249998	0.000000	26	8	0	0.000000	0.000000	0.000000	19.929113	0.000000	1.000000	-0.284383
0.883325	0.249998	0.000000	27	8	0	0.000000	0.000000	0.000000	19.929113	0.000000	1.000000	-0.282997
0.916658	0.249998	0.000000	28	8	0	0.000000	0.000000	0.000000	19.929113	0.000000	1.000000	-0.281649
0.949991	0.249998	0.000000	29	8	0	0.000000	0.000000	0.000000	19.929113	0.000000	1.000000	-0.280764
0.983329	0.249998	0.000000	30	8	0	0.000000	0.000000	0.000000	19.929113	0.000000	1.000000	-0.279192
1.000000	0.249998	0.000000	31	8	0	0.000000	0.000000	0.000000	19.929113	0.000000	1.000000	0.000000
0.000000	0.283331	0.000000	0	9	0	0.000000	0.000000	0.000000	19.929113	0.000000	1.000000	0.000000
0.016667	0.283331	0.000000	1	9	0	0.000000	0.000000	0.000000	19.929113	0.000000	1.000000	-0.265921
0.050000	0.283331	0.000000	2	9	0	0.000000	0.000000	0.000000	19.929113	0.000000	1.000000	-0.268015
0.083333	0.283331	0.000000	3	9	0	0.000000	0.000000	0.000000	19.929113	0.000000	1.000000	-0.277536
0.116666	0.283331	0.000000	4	9	0	0.000000	0.000000	0.000000	19.929113	0.000000	1.000000	-0.282051
0.149999	0.283331	0.000000	5	9	0	0.000000	0.000000	0.000000	19.929113	0.000000	1.000000	-0.283979
0.183332	0.283331	0.000000	6	9	0	0.000000	0.000000	0.000000	19.929113	0.000000	1.000000	-0.284797
0.216665	0.283331	0.000000	7	9	0	0.000000	0.000000	0.000000	19.929113	0.000000	1.000000	-0.285195
0.249998	0.283331	0.000000	8	9	0	0.000000	0.000000	0.000000	19.929113	0.000000	1.000000	-0.285406
0.283331	0.283331	0.000000	9	9	0	0.000000	0.000000	0.000000	19.929113	0.000000	1.000000	-0.285524
0.316663	0.283331	0.000000	10	9	0	0.000000	0.000000	0.000000	19.929113	0.000000	1.000000	-0.285592
0.349997	0.283331	0.000000	11	9	0	0.000000	0.000000	0.000000	19.929113	0.000000	1.000000	-0.285637
0.383329	0.283331	0.000000	12	9	0	0.000000	0.000000	0.000000	19.929113	0.000000	1.000000	-0.285664
0.416663	0.283331	0.000000	13	9	0	0.000000	0.000000	0.000000	19.929113	0.000000	1.000000	-0.285654