TITLE = "dt=0.100000s, t=1830.000000s, nu=0.000016, Lx=1.000000, Ly=1.000000, Lz=1.000000, Nx=12, Ny=12, Nz=12 "
VARIABLES =X, Y, Z, I, J, K, U, V, W, T, Xi, FlagP, P 
ZONE F=POINT, I=12, J=12, K=12
0.000000	0.000000	0.000000	0	0	0	0.000000	0.000000	0.000000	-13.426025	0.000000	1.000000	0.000000
0.050000	0.000000	0.000000	1	0	0	0.000000	0.000000	0.000000	-13.426001	0.000000	1.000000	0.000000
0.150000	0.000000	0.000000	2	0	0	0.000000	0.000000	0.000000	-13.426001	0.000000	1.000000	0.000000
0.250000	0.000000	0.000000	3	0	0	0.000000	0.000000	0.000000	-13.426001	0.000000	1.000000	0.000000
0.350000	0.000000	0.000000	4	0	0	0.000000	0.000000	0.000000	-13.426001	0.000000	1.000000	0.000000
0.450000	0.000000	0.000000	5	0	0	0.000000	0.000000	0.000000	-13.426001	0.000000	1.000000	0.000000
0.550000	0.000000	0.000000	6	0	0	0.000000	0.000000	0.000000	-13.426001	0.000000	1.000000	0.000000
0.650000	0.000000	0.000000	7	0	0	0.000000	0.000000	0.000000	-13.426001	0.000000	1.000000	0.000000
0.750000	0.000000	0.000000	8	0	0	0.000000	0.000000	0.000000	-13.426001	0.000000	1.000000	0.000000
0.850000	0.000000	0.000000	9	0	0	0.000000	0.000000	0.000000	-13.426001	0.000000	1.000000	0.000000
0.950000	0.000000	0.000000	10	0	0	0.000000	0.000000	0.000000	-13.426001	0.000000	1.000000	0.000000
1.000000	0.000000	0.000000	11	0	0	0.000000	0.000000	0.000000	-13.425155	0.000000	1.000000	0.000000
0.000000	0.050000	0.000000	0	1	0	0.000000	0.000000	0.000000	-13.426037	0.000000	1.000000	0.000000
0.050000	0.050000	0.000000	1	1	0	0.000000	0.000000	0.000000	-12.528653	0.000000	1.000000	0.550184
0.150000	0.050000	0.000000	2	1	0	0.000000	0.000000	0.000000	-12.528653	0.000000	1.000000	0.550155
0.250000	0.050000	0.000000	3	1	0	0.000000	0.000000	0.000000	-12.528653	0.000000	1.000000	0.550116
0.350000	0.050000	0.000000	4	1	0	0.000000	0.000000	0.000000	-12.528653	0.000000	1.000000	0.549968
0.450000	0.050000	0.000000	5	1	0	0.000000	0.000000	0.000000	-12.528653	0.000000	1.000000	0.549844
0.550000	0.050000	0.000000	6	1	0	0.000000	0.000000	0.000000	-12.528653	0.000000	1.000000	0.549755
0.650000	0.050000	0.000000	7	1	0	0.000000	0.000000	0.000000	-12.528653	0.000000	1.000000	0.549691
0.750000	0.050000	0.000000	8	1	0	0.000000	0.000000	0.000000	-12.528653	0.000000	1.000000	0.549641
0.850000	0.050000	0.000000	9	1	0	0.000000	0.000000	0.000000	-12.528653	0.000000	1.000000	0.549584
0.950000	0.050000	0.000000	10	1	0	0.000000	0.000000	0.000000	-12.528653	0.000000	1.000000	0.549491
1.000000	0.050000	0.000000	11	1	0	0.000000	0.000000	0.000000	-13.424731	0.000000	1.000000	0.000000
0.000000	0.150000	0.000000	0	2	0	0.000000	0.000000	0.000000	-13.426037	0.000000	1.000000	0.000000
0.050000	0.150000	0.000000	1	2	0	0.000000	0.000000	0.000000	-12.528653	0.000000	1.000000	0.550144
0.150000	0.150000	0.000000	2	2	0	0.000000	0.000000	0.000000	-12.528653	0.000000	1.000000	0.550175
0.250000	0.150000	0.000000	3	2	0	0.000000	0.000000	0.000000	-12.528653	0.000000	1.000000	0.549966
0.350000	0.150000	0.000000	4	2	0	0.000000	0.000000	0.000000	-12.528653	0.000000	1.000000	0.549763
0.450000	0.150000	0.000000	5	2	0	0.000000	0.000000	0.000000	-12.528653	0.000000	1.000000	0.549617
0.550000	0.150000	0.000000	6	2	0	0.000000	0.000000	0.000000	-12.528653	0.000000	1.000000	0.549521
0.650000	0.150000	0.000000	7	2	0	0.000000	0.000000	0.000000	-12.528653	0.000000	1.000000	0.549465
0.750000	0.150000	0.000000	8	2	0	0.000000	0.000000	0.000000	-12.528653	0.000000	1.000000	0.549444
0.850000	0.150000	0.000000	9	2	0	0.000000	0.000000	0.000000	-12.528653	0.000000	1.000000	0.549447
0.950000	0.150000	0.000000	10	2	0	0.000000	0.000000	0.000000	-12.528653	0.000000	1.000000	0.549366
1.000000	0.150000	0.000000	11	2	0	0.000000	0.000000	0.000000	-13.424731	0.000000	1.000000	0.000000
0.000000	0.250000	0.000000	0	3	0	0.000000	0.000000	0.000000	-13.426037	0.000000	1.000000	0.000000
0.050000	0.250000	0.000000	1	3	0	0.000000	0.000000	0.000000	-12.528653	0.000000	1.000000	0.550143
0.150000	0.250000	0.000000	2	3	0	0.000000	0.000000	0.000000	-12.528653	0.000000	1.000000	0.549978
0.250000	0.250000	0.000000	3	3	0	0.000000	0.000000	0.000000	-12.528653	0.000000	1.000000	0.549757
0.350000	0.250000	0.000000	4	3	0	0.000000	0.000000	0.000000	-12.528653	0.000000	1.000000	0.549582
0.450000	0.250000	0.000000	5	3	0	0.000000	0.000000	0.000000	-12.528653	0.000000	1.000000	0.549470
0.550000	0.250000	0.000000	6	3	0	0.000000	0.000000	0.000000	-12.528653	0.000000	1.000000	0.549410
0.650000	0.250000	0.000000	7	3	0	0.000000	0.000000	0.000000	-12.528653	0.000000	1.000000	0.549399
0.750000	0.250000	0.000000	8	3	0	0.000000	0.000000	0.000000	-12.528653	0.000000	1.000000	0.549446
0.850000	0.250000	0.000000	9	3	0	0.000000	0.000000	0.000000	-12.528653	0.000000	1.000000	0.549556
0.950000	0.250000	0.000000	10	3	0	0.000000	0.000000	0.000000	-12.528653	0.000000	1.000000	0.549519
1.000000	0.250000	0.000000	11	3	0	0.000000	0.000000	0.000000	-13.424731	0.000000	1.000000	0.000000
0.000000	0.350000	0.000000	0	4	0	0.000000	0.000000	0.000000	-13.426037	0.000000	1.000000	0.000000
0.050000	0.350000	0.000000	1	4	0	0.000000	0.000000	0.000000	-12.528653	0.000000	1.000000	0.550037
0.150000	0.350000	0.000000	2	4	0	0.000000	0.000000	0.000000	-12.528653	0.000000	1.000000	0.549803
0.250000	0.350000	0.000000	3	4	0	0.000000	0.000000	0.000000	-12.528653	0.000000	1.000000	0.549597
0.350000	0.350000	0.000000	4	4	0	0.000000	0.000000	0.000000	-12.528653	0.000000	1.000000	0.549465
0.450000	0.350000	0.000000	5	4	0	0.000000	0.000000	0.000000	-12.528653	0.000000	1.000000	0.549398
0.550000	0.350000	0.000000	6	4	0	0.000000	0.000000	0.000000	-12.528653	0.000000	1.000000	0.549383
0.650000	0.350000	0.000000	7	4	0	0.000000	0.000000	0.000000	-12.528653	0.000000	1.000000	0.549424
0.750000	0.350000	0.000000	8	4	0	0.000000	0.000000	0.000000	-12.528653	0.000000	1.000000	0.549533
0.850000	0.350000	0.000000	9	4	0	0.000000	0.000000	0.000000	-12.528653	0.000000	1.000000	0.549723
0.950000	0.350000	0.000000	10	4	0	0.000000	0.000000	0.000000	-12.528653	0.000000	1.000000	0.549714
1.000000	0.350000	0.000000	11	4	0	0.000000	0.000000	0.000000	-13.424731	0.000000	1.000000	0.000000
0.000000	0.450000	0.000000	0	5	0	0.000000	0.000000	0.000000	-13.426037	0.000000	1.000000	0.000000
0.050000	0.450000	0.000000	1	5	0	0.000000	0.000000	0.000000	-12.528653	0.000000	1.000000	0.549950
0.150000	0.450000	0.000000	2	5	0	0.000000	0.000000	0.000000	-12.528653	0.000000	1.000000	0.549677
0.250000	0.450000	0.000000	3	5	0	0.000000	0.000000	0.000000	-12.528653	0.000000	1.000000	0.549487
0.350000	0.450000	0.000000	4	5	0	0.000000	0.000000	0.000000	-12.528653	0.000000	1.000000	0.549395
0.450000	0.450000	0.000000	5	5	0	0.000000	0.000000	0.000000	-12.528653	0.000000	1.000000	0.549372
0.550000	0.450000	0.000000	6	5	0	0.000000	0.000000	0.000000	-12.528653	0.000000	1.000000	0.549402
0.650000	0.450000	0.000000	7	5	0	0.000000	0.000000	0.000000	-12.528653	0.000000	1.000000	0.549489
0.750000	0.450000	0.000000	8	5	0	0.000000	0.000000	0.000000	-12.528653	0.000000	1.000000	0.549655
0.850000	0.450000	0.000000	9	5	0	0.000000	0.000000	0.000000	-12.528653	0.000000	1.000000	0.549916
0.950000	0.450000	0.000000	10	5	0	0.000000	0.000000	0.000000	-12.528653	0.000000	1.000000	0.549933
1.000000	0.450000	0.000000	11	5	0	0.000000	0.000000	0.000000	-13.424731	0.000000	1.000000	0.000000
0.000000	0.550000	0.000000	0	6	0	0.000000	0.000000	0.000000	-13.426037	0.000000	1.000000	0.000000
0.050000	0.550000	0.000000	1	6	0	0.000000	0.000000	0.000000	-12.528653	0.000000	1.000000	0.549879
0.150000	0.550000	0.000000	2	6	0	0.000000	0.000000	0.000000	-12.528653	0.000000	1.000000	0.549581
0.250000	0.550000	0.000000	3	6	0	0.000000	0.000000	0.000000	-12.528653	0.000000	1.000000	0.549413
0.350000	0.550000	0.000000	4	6	0	0.000000	0.000000	0.000000	-12.528653	0.000000	1.000000	0.549361
0.450000	0.550000	0.000000	5	6	0	0.000000	0.000000	0.000000	-12.528653	0.000000	1.000000	0.549385
0.550000	0.550000	0.000000	6	6	0	0.000000	0.000000	0.000000	-12.528653	0.000000	1.000000	0.549461
0.650000	0.550000	0.000000	7	6	0	0.000000	0.000000	0.000000	-12.528653	0.000000	1.000000	0.549598
0.750000	0.550000	0.000000	8	6	0	0.000000	0.000000	0.000000	-12.528653	0.000000	1.000000	0.549820
0.850000	0.550000	0.000000	9	6	0	0.000000	0.000000	0.000000	-12.528653	0.000000	1.000000	0.550139
0.950000	0.550000	0.000000	10	6	0	0.000000	0.000000	0.000000	-12.528653	0.000000	1.000000	0.550181
1.000000	0.550000	0.000000	11	6	0	0.000000	0.000000	0.000000	-13.424731	0.000000	1.000000	0.000000
0.000000	0.650000	0.000000	0	7	0	0.000000	0.000000	0.000000	-13.426037	0.000000	1.000000	0.000000
0.050000	0.650000	0.000000	1	7	0	0.000000	0.000000	0.000000	-12.528653	0.000000	1.000000	0.549815
0.150000	0.650000	0.000000	2	7	0	0.000000	0.000000	0.000000	-12.528653	0.000000	1.000000	0.549503
0.250000	0.650000	0.000000	3	7	0	0.000000	0.000000	0.000000	-12.528653	0.000000	1.000000	0.549366
0.350000	0.650000	0.000000	4	7	0	0.000000	0.000000	0.000000	-12.528653	0.000000	1.000000	0.549366
0.450000	0.650000	0.000000	5	7	0	0.000000	0.000000	0.000000	-12.528653	0.000000	1.000000	0.549441
0.550000	0.650000	0.000000	6	7	0	0.000000	0.000000	0.000000	-12.528653	0.000000	1.000000	0.549573
0.650000	0.650000	0.000000	7	7	0	0.000000	0.000000	0.000000	-12.528653	0.000000	1.000000	0.549771
0.750000	0.650000	0.000000	8	7	0	0.000000	0.000000	0.000000	-12.528653	0.000000	1.000000	0.550048
0.850000	0.650000	0.000000	9	7	0	0.000000	0.000000	0.000000	-12.528653	0.000000	1.000000	0.550411
0.950000	0.650000	0.000000	10	7	0	0.000000	0.000000	0.000000	-12.528653	0.000000	1.000000	0.550475
1.000000	0.650000	0.000000	11	7	0	0.000000	0.000000	0.000000	-13.424731	0.000000	1.000000	0.000000
0.000000	0.750000	0.000000	0	8	0	0.000000	0.000000	0.000000	-13.426037	0.000000	1.000000	0.000000
0.050000	0.750000	0.000000	1	8	0	0.000000	0.000000	0.000000	-12.528653	0.000000	1.000000	0.549748
0.150000	0.750000	0.000000	2	8	0	0.000000	0.000000	0.000000	-12.528653	0.000000	1.000000	0.549438
0.250000	0.750000	0.000000	3	8	0	0.000000	0.000000	0.000000	-12.528653	0.000000	1.000000	0.549349
0.350000	0.750000	0.000000	4	8	0	0.000000	0.000000	0.000000	-12.528653	0.000000	1.000000	0.549413
0.450000	0.750000	0.000000	5	8	0	0.000000	0.000000	0.000000	-12.528653	0.000000	1.000000	0.549550
0.550000	0.750000	0.000000	6	8	0	0.000000	0.000000	0.000000	-12.528653	0.000000	1.000000	0.549752
0.650000	0.750000	0.000000	7	8	0	0.000000	0.000000	0.000000	-12.528653	0.000000	1.000000	0.550025
0.750000	0.750000	0.000000	8	8	0	0.000000	0.000000	0.000000	-12.528653	0.000000	1.000000	0.550363
0.850000	0.750000	0.000000	9	8	0	0.000000	0.000000	0.000000	-12.528653	0.000000	1.000000	0.550758
0.950000	0.750000	0.000000	10	8	0	0.000000	0.000000	0.000000	-12.528653	0.000000	1.000000	0.550843
1.000000	0.750000	0.000000	11	8	0	0.000000	0.000000	0.000000	-13.424731	0.000000	1.000000	0.000000
0.000000	0.850000	0.000000	0	9	0	0.000000	0.000000	0.000000	-13.426037	0.000000	1.000000	0.000000
0.050000	0.850000	0.000000	1	9	0	0.000000	0.000000	0.000000	-12.528653	0.000000	1.000000	0.549667
0.150000	0.850000	0.000000	2	9	0	0.000000	0.000000	0.000000	-12.528653	0.000000	1.000000	0.549383
0.250000	0.850000	0.000000	3	9	0	0.000000	0.000000	0.000000	-12.528653	0.000000	1.000000	0.549364
0.350000	0.850000	0.000000	4	9	0	0.000000	0.000000	0.000000	-12.528653	0.000000	1.000000	0.549506
0.450000	0.850000	0.000000	5	9	0	0.000000	0.000000	0.000000	-12.528653	0.000000	1.000000	0.549710
0.550000	0.850000	0.000000	6	9	0	0.000000	0.000000	0.000000	-12.528653	0.000000	1.000000	0.549987
0.650000	0.850000	0.000000	7	9	0	0.000000	0.000000	0.000000	-12.528653	0.000000	1.000000	0.550345
0.750000	0.850000	0.000000	8	9	0	0.000000	0.000000	0.000000	-12.528653	0.000000	1.000000	0.550758
0.850000	0.850000	0.000000	9	9	0	0.000000	0.000000	0.000000	-12.528653	0.000000	1.000000	0.551184
0.950000	0.850000	0.000000	10	9	0	0.000000	0.000000	0.000000	-12.528653	0.000000	1.000000	0.551281
1.000000	0.850000	0.000000	11	9	0	0.000000	0.000000	0.000000	-13.424731	0.000000	1.000000	0.000000
0.000000	0.950000	0.000000	0	10	0	0.000000	0.000000	0.000000	-13.426037	0.000000	1.000000	0.000000
0.050000	0.950000	0.000000	1	10	0	0.000000	0.000000	0.000000	-12.528653	0.000000	1.000000	0.549574
0.150000	0.950000	0.000000	2	10	0	0.000000	0.000000	0.000000	-12.528653	0.000000	1.000000	0.549295
0.250000	0.950000	0.000000	3	10	0	0.000000	0.000000	0.000000	-12.528653	0.000000	1.000000	0.549305
0.350000	0.950000	0.000000	4	10	0	0.000000	0.000000	0.000000	-12.528653	0.000000	1.000000	0.549482
0.450000	0.950000	0.000000	5	10	0	0.000000	0.000000	0.000000	-12.528653	0.000000	1.000000	0.549697
0.550000	0.950000	0.000000	6	10	0	0.000000	0.000000	0.000000	-12.528653	0.000000	1.000000	0.549985
0.650000	0.950000	0.000000	7	10	0	0.000000	0.000000	0.000000	-12.528653	0.000000	1.000000	0.550375
0.750000	0.950000	0.000000	8	10	0	0.000000	0.000000	0.000000	-12.528653	0.000000	1.000000	0.550839
0.850000	0.950000	0.000000	9	10	0	0.000000	0.000000	0.000000	-12.528653	0.000000	1.000000	0.551310
0.950000	0.950000	0.000000	10	10	0	0.000000	0.000000	0.000000	-12.528653	0.000000	1.000000	0.551433
1.000000	0.950000	0.000000	11	10	0	0.000000	0.000000	0.000000	-13.424731	0.000000	1.000000	0.000000
0.000000	1.000000	0.000000	0	11	0	0.000000	0.000000	0.000000	-13.425651	0.000000	1.000000	0.000000
0.050000	1.000000	0.000000	1	11	0	0.000000	0.000000	0.000000	-13.424880	0.000000	1.000000	0.000000
0.150000	1.000000	0.000000	2	11	0	0.000000	0.000000	0.000000	-13.424880	0.000000	1.000000	0.000000
0.250000	1.000000	0.000000	3	11	0	0.000000	0.000000	0.000000	-13.424880	0.000000	1.000000	0.000000
0.350000	1.000000	0.000000	4	11	0	0.000000	0.000000	0.000000	-13.424880	0.000000	1.000000	0.000000
0.450000	1.000000	0.000000	5	11	0	0.000000	0.000000	0.000000	-13.424880	0.000000	1.000000	0.000000
0.550000	1.000000	0.000000	6	11	0	0.000000	0.000000	0.000000	-13.424880	0.000000	1.000000	0.000000
0.650000	1.000000	0.000000	7	11	0	0.000000	0.000000	0.000000	-13.424880	0.000000	1.000000	0.000000
0.750000	1.000000	0.000000	8	11	0	0.000000	0.000000	0.000000	-13.424880	0.000000	1.000000	0.000000
0.850000	1.000000	0.000000	9	11	0	0.000000	0.000000	0.000000	-13.424880	0.000000	1.000000	0.000000
0.950000	1.000000	0.000000	10	11	0	0.000000	0.000000	0.000000	-13.424880	0.000000	1.000000	0.000000
1.000000	1.000000	0.000000	11	11	0	0.000000	0.000000	0.000000	-13.424781	0.000000	1.000000	0.000000
0.000000	0.000000	0.050000	0	0	1	0.000000	0.000000	0.000000	-13.426037	0.000000	1.000000	0.000000
0.050000	0.000000	0.050000	1	0	1	0.000000	0.000000	0.000000	-13.426001	0.000000	1.000000	0.550184
0.150000	0.000000	0.050000	2	0	1	0.000000	0.000000	0.000000	-13.426001	0.000000	1.000000	0.550155
0.250000	0.000000	0.050000	3	0	1	0.000000	0.000000	0.000000	-13.426001	0.000000	1.000000	0.550116
0.350000	0.000000	0.050000	4	0	1	0.000000	0.000000	0.000000	-13.426001	0.000000	1.000000	0.549968
0.450000	0.000000	0.050000	5	0	1	0.000000	0.000000	0.000000	-13.426001	0.000000	1.000000	0.549844
0.550000	0.000000	0.050000	6	0	1	0.000000	0.000000	0.000000	-13.426001	0.000000	1.000000	0.549755
0.650000	0.000000	0.050000	7	0	1	0.000000	0.000000	0.000000	-13.426001	0.000000	1.000000	0.549691
0.750000	0.000000	0.050000	8	0	1	0.000000	0.000000	0.000000	-13.426001	0.000000	1.000000	0.549641
0.850000	0.000000	0.050000	9	0	1	0.000000	0.000000	0.000000	-13.426001	0.000000	1.000000	0.549584
0.950000	0.000000	0.050000	10	0	1	0.000000	0.000000	0.000000	-13.426001	0.000000	1.000000	0.549491
1.000000	0.000000	0.050000	11	0	1	0.000000	0.000000	0.000000	-13.424731	0.000000	1.000000	0.000000
0.000000	0.050000	0.050000	0	1	1	0.000000	0.000000	0.000000	-13.426037	0.000000	1.000000	0.550184
0.050000	0.050000	0.050000	1	1	1	0.004380	0.005431	-0.009811	-13.382400	0.000000	-1.000000	0.550184
0.150000	0.050000	0.050000	2	1	1	0.007929	0.002274	-0.001443	-13.355470	0.000000	-1.000000	0.550155
0.250000	0.050000	0.050000	3	1	1	-0.001797	-0.007317	0.016213	-13.310878	0.000000	-1.000000	0.550116
0.350000	0.050000	0.050000	4	1	1	-0.013317	-0.009949	0.012573	-13.331507	0.000000	-1.000000	0.549968
0.450000	0.050000	0.050000	5	1	1	-0.016719	-0.011682	0.012460	-13.338606	0.000000	-1.000000	0.549844
0.550000	0.050000	0.050000	6	1	1	-0.017110	-0.012963	0.012576	-13.343004	0.000000	-1.000000	0.549755
0.650000	0.050000	0.050000	7	1	1	-0.015406	-0.013946	0.012630	-13.346174	0.000000	-1.000000	0.549691
0.750000	0.050000	0.050000	8	1	1	-0.011873	-0.014686	0.012469	-13.348607	0.000000	-1.000000	0.549641
0.850000	0.050000	0.050000	9	1	1	-0.006733	-0.015033	0.012110	-13.350569	0.000000	-1.000000	0.549584
0.950000	0.050000	0.050000	10	1	1	-0.001905	-0.014042	0.012137	-13.352473	0.000000	-1.000000	0.549491
1.000000	0.050000	0.050000	11	1	1	0.000000	0.000000	0.000000	-13.424731	0.000000	1.000000	0.549491
0.000000	0.150000	0.050000	0	2	1	0.000000	0.000000	0.000000	-13.426037	0.000000	1.000000	0.550144
0.050000	0.150000	0.050000	1	2	1	0.001584	0.006324	0.002954	-13.345950	0.000000	-1.000000	0.550144
0.150000	0.150000	0.050000	2	2	1	-0.006069	-0.004272	0.018056	-13.307241	0.000000	-1.000000	0.550175
0.250000	0.150000	0.050000	3	2	1	-0.019167	-0.018259	0.007486	-13.346526	0.000000	-1.000000	0.549966
0.350000	0.150000	0.050000	4	2	1	-0.024610	-0.023668	0.005352	-13.355103	0.000000	-1.000000	0.549763
0.450000	0.150000	0.050000	5	2	1	-0.026472	-0.027286	0.004203	-13.360431	0.000000	-1.000000	0.549617
0.550000	0.150000	0.050000	6	2	1	-0.026120	-0.029852	0.003293	-13.364353	0.000000	-1.000000	0.549521
0.650000	0.150000	0.050000	7	2	1	-0.024013	-0.031648	0.002281	-13.367435	0.000000	-1.000000	0.549465
0.750000	0.150000	0.050000	8	2	1	-0.020085	-0.032758	0.000931	-13.369983	0.000000	-1.000000	0.549444
0.850000	0.150000	0.050000	9	2	1	-0.013992	-0.032914	-0.000790	-13.372366	0.000000	-1.000000	0.549447
0.950000	0.150000	0.050000	10	2	1	-0.005177	-0.030687	-0.002575	-13.374728	0.000000	-1.000000	0.549366
1.000000	0.150000	0.050000	11	2	1	0.000000	0.000000	0.000000	-13.424731	0.000000	1.000000	0.549366
0.000000	0.250000	0.050000	0	3	1	0.000000	0.000000	0.000000	-13.426037	0.000000	1.000000	0.550143
0.050000	0.250000	0.050000	1	3	1	-0.008706	-0.004743	0.015236	-13.318399	0.000000	-1.000000	0.550143
0.150000	0.250000	0.050000	2	3	1	-0.021264	-0.016631	0.007390	-13.347900	0.000000	-1.000000	0.549978
0.250000	0.250000	0.050000	3	3	1	-0.027482	-0.024006	0.004489	-13.358674	0.000000	-1.000000	0.549757
0.350000	0.250000	0.050000	4	3	1	-0.030809	-0.029080	0.002601	-13.365416	0.000000	-1.000000	0.549582
0.450000	0.250000	0.050000	5	3	1	-0.031727	-0.032598	0.001347	-13.370394	0.000000	-1.000000	0.549470
0.550000	0.250000	0.050000	6	3	1	-0.030880	-0.034947	0.000363	-13.374294	0.000000	-1.000000	0.549410
0.650000	0.250000	0.050000	7	3	1	-0.028495	-0.036270	-0.000714	-13.377491	0.000000	-1.000000	0.549399
0.750000	0.250000	0.050000	8	3	1	-0.024309	-0.036639	-0.002110	-13.380184	0.000000	-1.000000	0.549446
0.850000	0.250000	0.050000	9	3	1	-0.017522	-0.035878	-0.004067	-13.382665	0.000000	-1.000000	0.549556
0.950000	0.250000	0.050000	10	3	1	-0.006670	-0.033161	-0.006798	-13.385255	0.000000	-1.000000	0.549519
1.000000	0.250000	0.050000	11	3	1	0.000000	0.000000	0.000000	-13.424731	0.000000	1.000000	0.549519
0.000000	0.350000	0.050000	0	4	1	0.000000	0.000000	0.000000	-13.426037	0.000000	1.000000	0.550037
0.050000	0.350000	0.050000	1	4	1	-0.011056	-0.012835	0.012617	-13.335651	0.000000	-1.000000	0.550037
0.150000	0.350000	0.050000	2	4	1	-0.026419	-0.021348	0.005486	-13.357339	0.000000	-1.000000	0.549803
0.250000	0.350000	0.050000	3	4	1	-0.032723	-0.026842	0.002711	-13.366547	0.000000	-1.000000	0.549597
0.350000	0.350000	0.050000	4	4	1	-0.035295	-0.031121	0.000975	-13.373025	0.000000	-1.000000	0.549465
0.450000	0.350000	0.050000	5	4	1	-0.035577	-0.034236	-0.000043	-13.378149	0.000000	-1.000000	0.549398
0.550000	0.350000	0.050000	6	4	1	-0.034362	-0.036312	-0.000726	-13.382321	0.000000	-1.000000	0.549383
0.650000	0.350000	0.050000	7	4	1	-0.031788	-0.037340	-0.001448	-13.385639	0.000000	-1.000000	0.549424
0.750000	0.350000	0.050000	8	4	1	-0.027383	-0.037313	-0.002577	-13.388375	0.000000	-1.000000	0.549533
0.850000	0.350000	0.050000	9	4	1	-0.020034	-0.036112	-0.004475	-13.390855	0.000000	-1.000000	0.549723
0.950000	0.350000	0.050000	10	4	1	-0.007720	-0.033199	-0.007554	-13.393397	0.000000	-1.000000	0.549714
1.000000	0.350000	0.050000	11	4	1	0.000000	0.000000	0.000000	-13.424731	0.000000	1.000000	0.549714
0.000000	0.450000	0.050000	0	5	1	0.000000	0.000000	0.000000	-13.426037	0.000000	1.000000	0.549950
0.050000	0.450000	0.050000	1	5	1	-0.012638	-0.014499	0.012741	-13.342765	0.000000	-1.000000	0.549950
0.150000	0.450000	0.050000	2	5	1	-0.029944	-0.022467	0.004609	-13.363538	0.000000	-1.000000	0.549677
0.250000	0.450000	0.050000	3	5	1	-0.036432	-0.027328	0.001592	-13.372618	0.000000	-1.000000	0.549487
0.350000	0.450000	0.050000	4	5	1	-0.038585	-0.031162	-0.000028	-13.379331	0.000000	-1.000000	0.549395
0.450000	0.450000	0.050000	5	5	1	-0.038474	-0.034124	-0.000805	-13.384895	0.000000	-1.000000	0.549372
0.550000	0.450000	0.050000	6	5	1	-0.037007	-0.036235	-0.001297	-13.389477	0.000000	-1.000000	0.549402
0.650000	0.450000	0.050000	7	5	1	-0.034245	-0.037370	-0.001914	-13.393262	0.000000	-1.000000	0.549489
0.750000	0.450000	0.050000	8	5	1	-0.029612	-0.037358	-0.003025	-13.396399	0.000000	-1.000000	0.549655
0.850000	0.450000	0.050000	9	5	1	-0.021820	-0.036083	-0.005049	-13.399180	0.000000	-1.000000	0.549916
0.950000	0.450000	0.050000	10	5	1	-0.008459	-0.033355	-0.008470	-13.401914	0.000000	-1.000000	0.549933
1.000000	0.450000	0.050000	11	5	1	0.000000	0.000000	0.000000	-13.424731	0.000000	1.000000	0.549933
0.000000	0.550000	0.050000	0	6	1	0.000000	0.000000	0.000000	-13.426037	0.000000	1.000000	0.549879
0.050000	0.550000	0.050000	1	6	1	-0.013882	-0.013809	0.013089	-13.347459	0.000000	-1.000000	0.549879
0.150000	0.550000	0.050000	2	6	1	-0.032661	-0.021537	0.004027	-13.368188	0.000000	-1.000000	0.549581
0.250000	0.550000	0.050000	3	6	1	-0.039220	-0.026158	0.000718	-13.377473	0.000000	-1.000000	0.549413
0.350000	0.550000	0.050000	4	6	1	-0.041048	-0.029821	-0.000814	-13.384639	0.000000	-1.000000	0.549361
0.450000	0.550000	0.050000	5	6	1	-0.040675	-0.032818	-0.001483	-13.390719	0.000000	-1.000000	0.549385
0.550000	0.550000	0.050000	6	6	1	-0.039001	-0.035128	-0.001968	-13.395994	0.000000	-1.000000	0.549461
0.650000	0.550000	0.050000	7	6	1	-0.035968	-0.036504	-0.002591	-13.400496	0.000000	-1.000000	0.549598
0.750000	0.550000	0.050000	8	6	1	-0.031001	-0.036638	-0.003657	-13.404274	0.000000	-1.000000	0.549820
0.850000	0.550000	0.050000	9	6	1	-0.022819	-0.035415	-0.005633	-13.407547	0.000000	-1.000000	0.550139
0.950000	0.550000	0.050000	10	6	1	-0.008853	-0.033012	-0.009186	-13.410591	0.000000	-1.000000	0.550181
1.000000	0.550000	0.050000	11	6	1	0.000000	0.000000	0.000000	-13.424731	0.000000	1.000000	0.550181
0.000000	0.650000	0.050000	0	7	1	0.000000	0.000000	0.000000	-13.426037	0.000000	1.000000	0.549815
0.050000	0.650000	0.050000	1	7	1	-0.014880	-0.011553	0.013417	-13.350783	0.000000	-1.000000	0.549815
0.150000	0.650000	0.050000	2	7	1	-0.034769	-0.019115	0.003457	-13.371683	0.000000	-1.000000	0.549503
0.250000	0.650000	0.050000	3	7	1	-0.041223	-0.023552	-0.000218	-13.381261	0.000000	-1.000000	0.549366
0.350000	0.650000	0.050000	4	7	1	-0.042764	-0.027114	-0.001630	-13.388887	0.000000	-1.000000	0.549366
0.450000	0.650000	0.050000	5	7	1	-0.042281	-0.030110	-0.002343	-13.395686	0.000000	-1.000000	0.549441
0.550000	0.650000	0.050000	6	7	1	-0.040437	-0.032572	-0.002989	-13.401852	0.000000	-1.000000	0.549573
0.650000	0.650000	0.050000	7	7	1	-0.037048	-0.034212	-0.003723	-13.407314	0.000000	-1.000000	0.549771
0.750000	0.650000	0.050000	8	7	1	-0.031629	-0.034616	-0.004727	-13.412022	0.000000	-1.000000	0.550048
0.850000	0.650000	0.050000	9	7	1	-0.023083	-0.033623	-0.006525	-13.416091	0.000000	-1.000000	0.550411
0.950000	0.650000	0.050000	10	7	1	-0.008915	-0.031644	-0.009950	-13.419679	0.000000	-1.000000	0.550475
1.000000	0.650000	0.050000	11	7	1	0.000000	0.000000	0.000000	-13.424731	0.000000	1.000000	0.550475
0.000000	0.750000	0.050000	0	8	1	0.000000	0.000000	0.000000	-13.426037	0.000000	1.000000	0.549748
0.050000	0.750000	0.050000	1	8	1	-0.015643	-0.008052	0.013605	-13.353062	0.000000	-1.000000	0.549748
0.150000	0.750000	0.050000	2	8	1	-0.036308	-0.015338	0.002798	-13.374200	0.000000	-1.000000	0.549438
0.250000	0.750000	0.050000	3	8	1	-0.042470	-0.019414	-0.001336	-13.384095	0.000000	-1.000000	0.549349
0.350000	0.750000	0.050000	4	8	1	-0.043676	-0.022700	-0.002623	-13.392148	0.000000	-1.000000	0.549413
0.450000	0.750000	0.050000	5	8	1	-0.043197	-0.025412	-0.003478	-13.399766	0.000000	-1.000000	0.549550
0.550000	0.750000	0.050000	6	8	1	-0.041308	-0.027757	-0.004436	-13.406989	0.000000	-1.000000	0.549752
0.650000	0.750000	0.050000	7	8	1	-0.037609	-0.029542	-0.005426	-13.413648	0.000000	-1.000000	0.550025
0.750000	0.750000	0.050000	8	8	1	-0.031701	-0.030273	-0.006465	-13.419589	0.000000	-1.000000	0.550363
0.850000	0.750000	0.050000	9	8	1	-0.022784	-0.029647	-0.008065	-13.424811	0.000000	-1.000000	0.550758
0.950000	0.750000	0.050000	10	8	1	-0.008711	-0.028144	-0.011176	-13.429290	0.000000	-1.000000	0.550843
1.000000	0.750000	0.050000	11	8	1	0.000000	0.000000	0.000000	-13.424731	0.000000	1.000000	0.550843
0.000000	0.850000	0.050000	0	9	1	0.000000	0.000000	0.000000	-13.426037	0.000000	1.000000	0.549667
0.050000	0.850000	0.050000	1	9	1	-0.015910	-0.003659	0.013555	-13.354356	0.000000	-1.000000	0.549667
0.150000	0.850000	0.050000	2	9	1	-0.036754	-0.010227	0.002048	-13.375811	0.000000	-1.000000	0.549383
0.250000	0.850000	0.050000	3	9	1	-0.042487	-0.013464	-0.002676	-13.386049	0.000000	-1.000000	0.549364
0.350000	0.850000	0.050000	4	9	1	-0.043314	-0.016024	-0.003960	-13.394481	0.000000	-1.000000	0.549506
0.450000	0.850000	0.050000	5	9	1	-0.042951	-0.017951	-0.004917	-13.402893	0.000000	-1.000000	0.549710
0.550000	0.850000	0.050000	6	9	1	-0.041319	-0.019680	-0.006229	-13.411282	0.000000	-1.000000	0.549987
0.650000	0.850000	0.050000	7	9	1	-0.037633	-0.021237	-0.007674	-13.419354	0.000000	-1.000000	0.550345
0.750000	0.850000	0.050000	8	9	1	-0.031404	-0.022146	-0.009004	-13.426822	0.000000	-1.000000	0.550758
0.850000	0.850000	0.050000	9	9	1	-0.022146	-0.021940	-0.010475	-13.433524	0.000000	-1.000000	0.551184
0.950000	0.850000	0.050000	10	9	1	-0.008337	-0.020909	-0.013106	-13.439182	0.000000	-1.000000	0.551281
1.000000	0.850000	0.050000	11	9	1	0.000000	0.000000	0.000000	-13.424731	0.000000	1.000000	0.551281
0.000000	0.950000	0.050000	0	10	1	0.000000	0.000000	0.000000	-13.426037	0.000000	1.000000	0.549574
0.050000	0.950000	0.050000	1	10	1	-0.014588	-0.000652	0.013936	-13.355146	0.000000	-1.000000	0.549574
0.150000	0.950000	0.050000	2	10	1	-0.034271	-0.003671	0.001424	-13.376801	0.000000	-1.000000	0.549295
0.250000	0.950000	0.050000	3	10	1	-0.040016	-0.004994	-0.004344	-13.387512	0.000000	-1.000000	0.549305
0.350000	0.950000	0.050000	4	10	1	-0.040635	-0.006019	-0.006049	-13.396091	0.000000	-1.000000	0.549482
0.450000	0.950000	0.050000	5	10	1	-0.040516	-0.006712	-0.006800	-13.404928	0.000000	-1.000000	0.549697
0.550000	0.950000	0.050000	6	10	1	-0.039568	-0.007347	-0.008207	-13.414294	0.000000	-1.000000	0.549985
0.650000	0.950000	0.050000	7	10	1	-0.036574	-0.008003	-0.010138	-13.423767	0.000000	-1.000000	0.550375
0.750000	0.950000	0.050000	8	10	1	-0.030767	-0.008464	-0.012135	-13.432930	0.000000	-1.000000	0.550839
0.850000	0.950000	0.050000	9	10	1	-0.021637	-0.008468	-0.013928	-13.441367	0.000000	-1.000000	0.551310
0.950000	0.950000	0.050000	10	10	1	-0.008089	-0.008070	-0.016159	-13.448419	0.000000	-1.000000	0.551433
1.000000	0.950000	0.050000	11	10	1	0.000000	0.000000	0.000000	-13.424731	0.000000	1.000000	0.551433
0.000000	1.000000	0.050000	0	11	1	0.000000	0.000000	0.000000	-13.426037	0.000000	1.000000	0.000000
0.050000	1.000000	0.050000	1	11	1	0.000000	0.000000	0.000000	-13.424880	0.000000	1.000000	0.549574
0.150000	1.000000	0.050000	2	11	1	0.000000	0.000000	0.000000	-13.424880	0.000000	1.000000	0.549295
0.250000	1.000000	0.050000	3	11	1	0.000000	0.000000	0.000000	-13.424880	0.000000	1.000000	0.549305
0.350000	1.000000	0.050000	4	11	1	0.000000	0.000000	0.000000	-13.424880	0.000000	1.000000	0.549482
0.450000	1.000000	0.050000	5	11	1	0.000000	0.000000	0.000000	-13.424880	0.000000	1.000000	0.549697
0.550000	1.000000	0.050000	6	11	1	0.000000	0.000000	0.000000	-13.424880	0.000000	1.000000	0.549985
0.650000	1.000000	0.050000	7	11	1	0.000000	0.000000	0.000000	-13.424880	0.000000	1.000000	0.550375
0.750000	1.000000	0.050000	8	11	1	0.000000	0.000000	0.000000	-13.424880	0.000000	1.000000	0.550839
0.850000	1.000000	0.050000	9	11	1	0.000000	0.000000	0.000000	-13.424880	0.000000	1.000000	0.551310
0.950000	1.000000	0.050000	10	11	1	0.000000	0.000000	0.000000	-13.424880	0.000000	1.000000	0.551433
1.000000	1.000000	0.050000	11	11	1	0.000000	0.000000	0.000000	-13.424731	0.000000	1.000000	0.000000
0.000000	0.000000	0.150000	0	0	2	0.000000	0.000000	0.000000	-13.426037	0.000000	1.000000	0.000000
0.050000	0.000000	0.150000	1	0	2	0.000000	0.000000	0.000000	-13.426001	0.000000	1.000000	0.432311
0.150000	0.000000	0.150000	2	0	2	0.000000	0.000000	0.000000	-13.426001	0.000000	1.000000	0.432323
0.250000	0.000000	0.150000	3	0	2	0.000000	0.000000	0.000000	-13.426001	0.000000	1.000000	0.432418
0.350000	0.000000	0.150000	4	0	2	0.000000	0.000000	0.000000	-13.426001	0.000000	1.000000	0.432204
0.450000	0.000000	0.150000	5	0	2	0.000000	0.000000	0.000000	-13.426001	0.000000	1.000000	0.432020
0.550000	0.000000	0.150000	6	0	2	0.000000	0.000000	0.000000	-13.426001	0.000000	1.000000	0.431878
0.650000	0.000000	0.150000	7	0	2	0.000000	0.000000	0.000000	-13.426001	0.000000	1.000000	0.431764
0.750000	0.000000	0.150000	8	0	2	0.000000	0.000000	0.000000	-13.426001	0.000000	1.000000	0.431667
0.850000	0.000000	0.150000	9	0	2	0.000000	0.000000	0.000000	-13.426001	0.000000	1.000000	0.431579
0.950000	0.000000	0.150000	10	0	2	0.000000	0.000000	0.000000	-13.426001	0.000000	1.000000	0.431503