TITLE = "dt=10.000000s, t=7230.000000s, nu=0.000015, Lx=1.000000, Ly=1.000000, Lz=1.000000, Nx=22, Ny=22, Nz=22 "
VARIABLES =X, Y, Z, I, J, K, U, V, W, T, Xi, FlagP, P 
ZONE F=POINT, I=22, J=22, K=22
0.000000	0.000000	0.000000	0	0	0	0.000000	0.000000	0.000000	0.666667	0.000000	1.000000	0.000000
0.025000	0.000000	0.000000	1	0	0	0.000000	0.000000	0.000000	0.000000	0.000000	1.000000	0.000000
0.075000	0.000000	0.000000	2	0	0	0.000000	0.000000	0.000000	0.000000	0.000000	1.000000	0.000000
0.125000	0.000000	0.000000	3	0	0	0.000000	0.000000	0.000000	0.000000	0.000000	1.000000	0.000000
0.175000	0.000000	0.000000	4	0	0	0.000000	0.000000	0.000000	0.000000	0.000000	1.000000	0.000000
0.225000	0.000000	0.000000	5	0	0	0.000000	0.000000	0.000000	0.000000	0.000000	1.000000	0.000000
0.275000	0.000000	0.000000	6	0	0	0.000000	0.000000	0.000000	0.000000	0.000000	1.000000	0.000000
0.325000	0.000000	0.000000	7	0	0	0.000000	0.000000	0.000000	0.000000	0.000000	1.000000	0.000000
0.375000	0.000000	0.000000	8	0	0	0.000000	0.000000	0.000000	0.000000	0.000000	1.000000	0.000000
0.425000	0.000000	0.000000	9	0	0	0.000000	0.000000	0.000000	0.000000	0.000000	1.000000	0.000000
0.475000	0.000000	0.000000	10	0	0	0.000000	0.000000	0.000000	0.000000	0.000000	1.000000	0.000000
0.525000	0.000000	0.000000	11	0	0	0.000000	0.000000	0.000000	0.000000	0.000000	1.000000	0.000000
0.575000	0.000000	0.000000	12	0	0	0.000000	0.000000	0.000000	0.000000	0.000000	1.000000	0.000000
0.625000	0.000000	0.000000	13	0	0	0.000000	0.000000	0.000000	0.000000	0.000000	1.000000	0.000000
0.675000	0.000000	0.000000	14	0	0	0.000000	0.000000	0.000000	0.000000	0.000000	1.000000	0.000000
0.725000	0.000000	0.000000	15	0	0	0.000000	0.000000	0.000000	0.000000	0.000000	1.000000	0.000000
0.775000	0.000000	0.000000	16	0	0	0.000000	0.000000	0.000000	0.000000	0.000000	1.000000	0.000000
0.825000	0.000000	0.000000	17	0	0	0.000000	0.000000	0.000000	0.000000	0.000000	1.000000	0.000000
0.875000	0.000000	0.000000	18	0	0	0.000000	0.000000	0.000000	0.000000	0.000000	1.000000	0.000000
0.925000	0.000000	0.000000	19	0	0	0.000000	0.000000	0.000000	0.000000	0.000000	1.000000	0.000000
0.975000	0.000000	0.000000	20	0	0	0.000000	0.000000	0.000000	0.000000	0.000000	1.000000	0.000000
1.000000	0.000000	0.000000	21	0	0	0.000000	0.000000	0.000000	0.000000	0.000000	1.000000	0.000000
0.000000	0.025000	0.000000	0	1	0	0.000000	0.000000	0.000000	1.000000	0.000000	1.000000	0.000000
0.025000	0.025000	0.000000	1	1	0	0.000000	0.000000	0.000000	1.166979	0.000000	1.000000	-0.000023
0.075000	0.025000	0.000000	2	1	0	0.000000	0.000000	0.000000	1.343905	0.000000	1.000000	-0.000023
0.125000	0.025000	0.000000	3	1	0	0.000000	0.000000	0.000000	1.493471	0.000000	1.000000	-0.000024
0.175000	0.025000	0.000000	4	1	0	0.000000	0.000000	0.000000	1.630428	0.000000	1.000000	-0.000024
0.225000	0.025000	0.000000	5	1	0	0.000000	0.000000	0.000000	1.739667	0.000000	1.000000	-0.000024
0.275000	0.025000	0.000000	6	1	0	0.000000	0.000000	0.000000	1.775957	0.000000	1.000000	-0.000024
0.325000	0.025000	0.000000	7	1	0	0.000000	0.000000	0.000000	1.706094	0.000000	1.000000	-0.000024
0.375000	0.025000	0.000000	8	1	0	0.000000	0.000000	0.000000	1.585419	0.000000	1.000000	-0.000024
0.425000	0.025000	0.000000	9	1	0	0.000000	0.000000	0.000000	1.456284	0.000000	1.000000	-0.000024
0.475000	0.025000	0.000000	10	1	0	0.000000	0.000000	0.000000	1.332594	0.000000	1.000000	-0.000024
0.525000	0.025000	0.000000	11	1	0	0.000000	0.000000	0.000000	1.215411	0.000000	1.000000	-0.000024
0.575000	0.025000	0.000000	12	1	0	0.000000	0.000000	0.000000	1.103178	0.000000	1.000000	-0.000023
0.625000	0.025000	0.000000	13	1	0	0.000000	0.000000	0.000000	0.995170	0.000000	1.000000	-0.000023
0.675000	0.025000	0.000000	14	1	0	0.000000	0.000000	0.000000	0.891146	0.000000	1.000000	-0.000023
0.725000	0.025000	0.000000	15	1	0	0.000000	0.000000	0.000000	0.790723	0.000000	1.000000	-0.000022
0.775000	0.025000	0.000000	16	1	0	0.000000	0.000000	0.000000	0.692509	0.000000	1.000000	-0.000022
0.825000	0.025000	0.000000	17	1	0	0.000000	0.000000	0.000000	0.593513	0.000000	1.000000	-0.000021
0.875000	0.025000	0.000000	18	1	0	0.000000	0.000000	0.000000	0.487625	0.000000	1.000000	-0.000020
0.925000	0.025000	0.000000	19	1	0	0.000000	0.000000	0.000000	0.361911	0.000000	1.000000	-0.000019
0.975000	0.025000	0.000000	20	1	0	0.000000	0.000000	0.000000	0.191551	0.000000	1.000000	-0.000019
1.000000	0.025000	0.000000	21	1	0	0.000000	0.000000	0.000000	0.000000	0.000000	1.000000	0.000000
0.000000	0.075000	0.000000	0	2	0	0.000000	0.000000	0.000000	1.000000	0.000000	1.000000	0.000000
0.025000	0.075000	0.000000	1	2	0	0.000000	0.000000	0.000000	1.162594	0.000000	1.000000	-0.000023
0.075000	0.075000	0.000000	2	2	0	0.000000	0.000000	0.000000	1.324078	0.000000	1.000000	-0.000023
0.125000	0.075000	0.000000	3	2	0	0.000000	0.000000	0.000000	1.464360	0.000000	1.000000	-0.000024
0.175000	0.075000	0.000000	4	2	0	0.000000	0.000000	0.000000	1.598066	0.000000	1.000000	-0.000024
0.225000	0.075000	0.000000	5	2	0	0.000000	0.000000	0.000000	1.708360	0.000000	1.000000	-0.000024
0.275000	0.075000	0.000000	6	2	0	0.000000	0.000000	0.000000	1.737737	0.000000	1.000000	-0.000024
0.325000	0.075000	0.000000	7	2	0	0.000000	0.000000	0.000000	1.645223	0.000000	1.000000	-0.000024
0.375000	0.075000	0.000000	8	2	0	0.000000	0.000000	0.000000	1.511743	0.000000	1.000000	-0.000024
0.425000	0.075000	0.000000	9	2	0	0.000000	0.000000	0.000000	1.379991	0.000000	1.000000	-0.000024
0.475000	0.075000	0.000000	10	2	0	0.000000	0.000000	0.000000	1.258848	0.000000	1.000000	-0.000024
0.525000	0.075000	0.000000	11	2	0	0.000000	0.000000	0.000000	1.146745	0.000000	1.000000	-0.000024
0.575000	0.075000	0.000000	12	2	0	0.000000	0.000000	0.000000	1.041550	0.000000	1.000000	-0.000023
0.625000	0.075000	0.000000	13	2	0	0.000000	0.000000	0.000000	0.942439	0.000000	1.000000	-0.000023
0.675000	0.075000	0.000000	14	2	0	0.000000	0.000000	0.000000	0.849004	0.000000	1.000000	-0.000023
0.725000	0.075000	0.000000	15	2	0	0.000000	0.000000	0.000000	0.760491	0.000000	1.000000	-0.000022
0.775000	0.075000	0.000000	16	2	0	0.000000	0.000000	0.000000	0.674886	0.000000	1.000000	-0.000022
0.825000	0.075000	0.000000	17	2	0	0.000000	0.000000	0.000000	0.588395	0.000000	1.000000	-0.000021
0.875000	0.075000	0.000000	18	2	0	0.000000	0.000000	0.000000	0.490957	0.000000	1.000000	-0.000020
0.925000	0.075000	0.000000	19	2	0	0.000000	0.000000	0.000000	0.368892	0.000000	1.000000	-0.000019
0.975000	0.075000	0.000000	20	2	0	0.000000	0.000000	0.000000	0.201696	0.000000	1.000000	-0.000019
1.000000	0.075000	0.000000	21	2	0	0.000000	0.000000	0.000000	0.000000	0.000000	1.000000	0.000000
0.000000	0.125000	0.000000	0	3	0	0.000000	0.000000	0.000000	1.000000	0.000000	1.000000	0.000000
0.025000	0.125000	0.000000	1	3	0	0.000000	0.000000	0.000000	1.159504	0.000000	1.000000	-0.000023
0.075000	0.125000	0.000000	2	3	0	0.000000	0.000000	0.000000	1.313377	0.000000	1.000000	-0.000023
0.125000	0.125000	0.000000	3	3	0	0.000000	0.000000	0.000000	1.446799	0.000000	1.000000	-0.000024
0.175000	0.125000	0.000000	4	3	0	0.000000	0.000000	0.000000	1.575588	0.000000	1.000000	-0.000024
0.225000	0.125000	0.000000	5	3	0	0.000000	0.000000	0.000000	1.679173	0.000000	1.000000	-0.000024
0.275000	0.125000	0.000000	6	3	0	0.000000	0.000000	0.000000	1.686688	0.000000	1.000000	-0.000024
0.325000	0.125000	0.000000	7	3	0	0.000000	0.000000	0.000000	1.574578	0.000000	1.000000	-0.000024
0.375000	0.125000	0.000000	8	3	0	0.000000	0.000000	0.000000	1.436014	0.000000	1.000000	-0.000024
0.425000	0.125000	0.000000	9	3	0	0.000000	0.000000	0.000000	1.308362	0.000000	1.000000	-0.000024
0.475000	0.125000	0.000000	10	3	0	0.000000	0.000000	0.000000	1.195366	0.000000	1.000000	-0.000024
0.525000	0.125000	0.000000	11	3	0	0.000000	0.000000	0.000000	1.093380	0.000000	1.000000	-0.000024
0.575000	0.125000	0.000000	12	3	0	0.000000	0.000000	0.000000	0.999571	0.000000	1.000000	-0.000023
0.625000	0.125000	0.000000	13	3	0	0.000000	0.000000	0.000000	0.912490	0.000000	1.000000	-0.000023
0.675000	0.125000	0.000000	14	3	0	0.000000	0.000000	0.000000	0.831007	0.000000	1.000000	-0.000023
0.725000	0.125000	0.000000	15	3	0	0.000000	0.000000	0.000000	0.753364	0.000000	1.000000	-0.000022
0.775000	0.125000	0.000000	16	3	0	0.000000	0.000000	0.000000	0.676927	0.000000	1.000000	-0.000022
0.825000	0.125000	0.000000	17	3	0	0.000000	0.000000	0.000000	0.597132	0.000000	1.000000	-0.000021
0.875000	0.125000	0.000000	18	3	0	0.000000	0.000000	0.000000	0.502451	0.000000	1.000000	-0.000020
0.925000	0.125000	0.000000	19	3	0	0.000000	0.000000	0.000000	0.380079	0.000000	1.000000	-0.000019
0.975000	0.125000	0.000000	20	3	0	0.000000	0.000000	0.000000	0.210027	0.000000	1.000000	-0.000019
1.000000	0.125000	0.000000	21	3	0	0.000000	0.000000	0.000000	0.000000	0.000000	1.000000	0.000000
0.000000	0.175000	0.000000	0	4	0	0.000000	0.000000	0.000000	1.000000	0.000000	1.000000	0.000000
0.025000	0.175000	0.000000	1	4	0	0.000000	0.000000	0.000000	1.158278	0.000000	1.000000	-0.000023
0.075000	0.175000	0.000000	2	4	0	0.000000	0.000000	0.000000	1.309907	0.000000	1.000000	-0.000023
0.125000	0.175000	0.000000	3	4	0	0.000000	0.000000	0.000000	1.440647	0.000000	1.000000	-0.000024
0.175000	0.175000	0.000000	4	4	0	0.000000	0.000000	0.000000	1.566191	0.000000	1.000000	-0.000024
0.225000	0.175000	0.000000	5	4	0	0.000000	0.000000	0.000000	1.661003	0.000000	1.000000	-0.000024
0.275000	0.175000	0.000000	6	4	0	0.000000	0.000000	0.000000	1.645056	0.000000	1.000000	-0.000024
0.325000	0.175000	0.000000	7	4	0	0.000000	0.000000	0.000000	1.522715	0.000000	1.000000	-0.000024
0.375000	0.175000	0.000000	8	4	0	0.000000	0.000000	0.000000	1.385991	0.000000	1.000000	-0.000024
0.425000	0.175000	0.000000	9	4	0	0.000000	0.000000	0.000000	1.265026	0.000000	1.000000	-0.000024
0.475000	0.175000	0.000000	10	4	0	0.000000	0.000000	0.000000	1.160068	0.000000	1.000000	-0.000024
0.525000	0.175000	0.000000	11	4	0	0.000000	0.000000	0.000000	1.066332	0.000000	1.000000	-0.000023
0.575000	0.175000	0.000000	12	4	0	0.000000	0.000000	0.000000	0.980469	0.000000	1.000000	-0.000023
0.625000	0.175000	0.000000	13	4	0	0.000000	0.000000	0.000000	0.900517	0.000000	1.000000	-0.000023
0.675000	0.175000	0.000000	14	4	0	0.000000	0.000000	0.000000	0.824831	0.000000	1.000000	-0.000023
0.725000	0.175000	0.000000	15	4	0	0.000000	0.000000	0.000000	0.751391	0.000000	1.000000	-0.000022
0.775000	0.175000	0.000000	16	4	0	0.000000	0.000000	0.000000	0.677620	0.000000	1.000000	-0.000022
0.825000	0.175000	0.000000	17	4	0	0.000000	0.000000	0.000000	0.599446	0.000000	1.000000	-0.000021
0.875000	0.175000	0.000000	18	4	0	0.000000	0.000000	0.000000	0.505570	0.000000	1.000000	-0.000020
0.925000	0.175000	0.000000	19	4	0	0.000000	0.000000	0.000000	0.383542	0.000000	1.000000	-0.000019
0.975000	0.175000	0.000000	20	4	0	0.000000	0.000000	0.000000	0.213044	0.000000	1.000000	-0.000019
1.000000	0.175000	0.000000	21	4	0	0.000000	0.000000	0.000000	0.000000	0.000000	1.000000	0.000000
0.000000	0.225000	0.000000	0	5	0	0.000000	0.000000	0.000000	1.000000	0.000000	1.000000	0.000000
0.025000	0.225000	0.000000	1	5	0	0.000000	0.000000	0.000000	1.158073	0.000000	1.000000	-0.000023
0.075000	0.225000	0.000000	2	5	0	0.000000	0.000000	0.000000	1.309680	0.000000	1.000000	-0.000023
0.125000	0.225000	0.000000	3	5	0	0.000000	0.000000	0.000000	1.440118	0.000000	1.000000	-0.000024
0.175000	0.225000	0.000000	4	5	0	0.000000	0.000000	0.000000	1.564180	0.000000	1.000000	-0.000024
0.225000	0.225000	0.000000	5	5	0	0.000000	0.000000	0.000000	1.651529	0.000000	1.000000	-0.000024
0.275000	0.225000	0.000000	6	5	0	0.000000	0.000000	0.000000	1.617718	0.000000	1.000000	-0.000024
0.325000	0.225000	0.000000	7	5	0	0.000000	0.000000	0.000000	1.491627	0.000000	1.000000	-0.000024
0.375000	0.225000	0.000000	8	5	0	0.000000	0.000000	0.000000	1.358832	0.000000	1.000000	-0.000024
0.425000	0.225000	0.000000	9	5	0	0.000000	0.000000	0.000000	1.243426	0.000000	1.000000	-0.000024
0.475000	0.225000	0.000000	10	5	0	0.000000	0.000000	0.000000	1.143646	0.000000	1.000000	-0.000024
0.525000	0.225000	0.000000	11	5	0	0.000000	0.000000	0.000000	1.054268	0.000000	1.000000	-0.000023
0.575000	0.225000	0.000000	12	5	0	0.000000	0.000000	0.000000	0.971818	0.000000	1.000000	-0.000023
0.625000	0.225000	0.000000	13	5	0	0.000000	0.000000	0.000000	0.894266	0.000000	1.000000	-0.000023
0.675000	0.225000	0.000000	14	5	0	0.000000	0.000000	0.000000	0.819986	0.000000	1.000000	-0.000023
0.725000	0.225000	0.000000	15	5	0	0.000000	0.000000	0.000000	0.747131	0.000000	1.000000	-0.000022
0.775000	0.225000	0.000000	16	5	0	0.000000	0.000000	0.000000	0.673363	0.000000	1.000000	-0.000022
0.825000	0.225000	0.000000	17	5	0	0.000000	0.000000	0.000000	0.595598	0.000000	1.000000	-0.000021
0.875000	0.225000	0.000000	18	5	0	0.000000	0.000000	0.000000	0.502634	0.000000	1.000000	-0.000020
0.925000	0.225000	0.000000	19	5	0	0.000000	0.000000	0.000000	0.382002	0.000000	1.000000	-0.000019
0.975000	0.225000	0.000000	20	5	0	0.000000	0.000000	0.000000	0.213075	0.000000	1.000000	-0.000019
1.000000	0.225000	0.000000	21	5	0	0.000000	0.000000	0.000000	0.000000	0.000000	1.000000	0.000000
0.000000	0.275000	0.000000	0	6	0	0.000000	0.000000	0.000000	1.000000	0.000000	1.000000	0.000000
0.025000	0.275000	0.000000	1	6	0	0.000000	0.000000	0.000000	1.158247	0.000000	1.000000	-0.000023
0.075000	0.275000	0.000000	2	6	0	0.000000	0.000000	0.000000	1.310495	0.000000	1.000000	-0.000023
0.125000	0.275000	0.000000	3	6	0	0.000000	0.000000	0.000000	1.441578	0.000000	1.000000	-0.000024
0.175000	0.275000	0.000000	4	6	0	0.000000	0.000000	0.000000	1.565193	0.000000	1.000000	-0.000024
0.225000	0.275000	0.000000	5	6	0	0.000000	0.000000	0.000000	1.647279	0.000000	1.000000	-0.000024
0.275000	0.275000	0.000000	6	6	0	0.000000	0.000000	0.000000	1.602142	0.000000	1.000000	-0.000024
0.325000	0.275000	0.000000	7	6	0	0.000000	0.000000	0.000000	1.475303	0.000000	1.000000	-0.000024
0.375000	0.275000	0.000000	8	6	0	0.000000	0.000000	0.000000	1.345898	0.000000	1.000000	-0.000024
0.425000	0.275000	0.000000	9	6	0	0.000000	0.000000	0.000000	1.233946	0.000000	1.000000	-0.000024
0.475000	0.275000	0.000000	10	6	0	0.000000	0.000000	0.000000	1.136691	0.000000	1.000000	-0.000024
0.525000	0.275000	0.000000	11	6	0	0.000000	0.000000	0.000000	1.048889	0.000000	1.000000	-0.000023
0.575000	0.275000	0.000000	12	6	0	0.000000	0.000000	0.000000	0.967230	0.000000	1.000000	-0.000023
0.625000	0.275000	0.000000	13	6	0	0.000000	0.000000	0.000000	0.889896	0.000000	1.000000	-0.000023
0.675000	0.275000	0.000000	14	6	0	0.000000	0.000000	0.000000	0.815504	0.000000	1.000000	-0.000023
0.725000	0.275000	0.000000	15	6	0	0.000000	0.000000	0.000000	0.742447	0.000000	1.000000	-0.000022
0.775000	0.275000	0.000000	16	6	0	0.000000	0.000000	0.000000	0.668577	0.000000	1.000000	-0.000022
0.825000	0.275000	0.000000	17	6	0	0.000000	0.000000	0.000000	0.590959	0.000000	1.000000	-0.000021
0.875000	0.275000	0.000000	18	6	0	0.000000	0.000000	0.000000	0.498953	0.000000	1.000000	-0.000020
0.925000	0.275000	0.000000	19	6	0	0.000000	0.000000	0.000000	0.379723	0.000000	1.000000	-0.000019
0.975000	0.275000	0.000000	20	6	0	0.000000	0.000000	0.000000	0.212444	0.000000	1.000000	-0.000019
1.000000	0.275000	0.000000	21	6	0	0.000000	0.000000	0.000000	0.000000	0.000000	1.000000	0.000000
0.000000	0.325000	0.000000	0	7	0	0.000000	0.000000	0.000000	1.000000	0.000000	1.000000	0.000000
0.025000	0.325000	0.000000	1	7	0	0.000000	0.000000	0.000000	1.158495	0.000000	1.000000	-0.000023
0.075000	0.325000	0.000000	2	7	0	0.000000	0.000000	0.000000	1.311433	0.000000	1.000000	-0.000023
0.125000	0.325000	0.000000	3	7	0	0.000000	0.000000	0.000000	1.443352	0.000000	1.000000	-0.000024
0.175000	0.325000	0.000000	4	7	0	0.000000	0.000000	0.000000	1.566998	0.000000	1.000000	-0.000024
0.225000	0.325000	0.000000	5	7	0	0.000000	0.000000	0.000000	1.645837	0.000000	1.000000	-0.000024
0.275000	0.325000	0.000000	6	7	0	0.000000	0.000000	0.000000	1.594405	0.000000	1.000000	-0.000024
0.325000	0.325000	0.000000	7	7	0	0.000000	0.000000	0.000000	1.467846	0.000000	1.000000	-0.000024
0.375000	0.325000	0.000000	8	7	0	0.000000	0.000000	0.000000	1.340651	0.000000	1.000000	-0.000024
0.425000	0.325000	0.000000	9	7	0	0.000000	0.000000	0.000000	1.230466	0.000000	1.000000	-0.000024
0.475000	0.325000	0.000000	10	7	0	0.000000	0.000000	0.000000	1.134151	0.000000	1.000000	-0.000024
0.525000	0.325000	0.000000	11	7	0	0.000000	0.000000	0.000000	1.046615	0.000000	1.000000	-0.000023
0.575000	0.325000	0.000000	12	7	0	0.000000	0.000000	0.000000	0.964791	0.000000	1.000000	-0.000023
0.625000	0.325000	0.000000	13	7	0	0.000000	0.000000	0.000000	0.887104	0.000000	1.000000	-0.000023
0.675000	0.325000	0.000000	14	7	0	0.000000	0.000000	0.000000	0.812382	0.000000	1.000000	-0.000023
0.725000	0.325000	0.000000	15	7	0	0.000000	0.000000	0.000000	0.739158	0.000000	1.000000	-0.000022
0.775000	0.325000	0.000000	16	7	0	0.000000	0.000000	0.000000	0.665340	0.000000	1.000000	-0.000022
0.825000	0.325000	0.000000	17	7	0	0.000000	0.000000	0.000000	0.587982	0.000000	1.000000	-0.000021
0.875000	0.325000	0.000000	18	7	0	0.000000	0.000000	0.000000	0.496708	0.000000	1.000000	-0.000020
0.925000	0.325000	0.000000	19	7	0	0.000000	0.000000	0.000000	0.378377	0.000000	1.000000	-0.000019
0.975000	0.325000	0.000000	20	7	0	0.000000	0.000000	0.000000	0.212075	0.000000	1.000000	-0.000019
1.000000	0.325000	0.000000	21	7	0	0.000000	0.000000	0.000000	0.000000	0.000000	1.000000	0.000000
0.000000	0.375000	0.000000	0	8	0	0.000000	0.000000	0.000000	1.000000	0.000000	1.000000	0.000000
0.025000	0.375000	0.000000	1	8	0	0.000000	0.000000	0.000000	1.158703	0.000000	1.000000	-0.000023
0.075000	0.375000	0.000000	2	8	0	0.000000	0.000000	0.000000	1.312178	0.000000	1.000000	-0.000023
0.125000	0.375000	0.000000	3	8	0	0.000000	0.000000	0.000000	1.444795	0.000000	1.000000	-0.000024
0.175000	0.375000	0.000000	4	8	0	0.000000	0.000000	0.000000	1.568635	0.000000	1.000000	-0.000024
0.225000	0.375000	0.000000	5	8	0	0.000000	0.000000	0.000000	1.645718	0.000000	1.000000	-0.000024
0.275000	0.375000	0.000000	6	8	0	0.000000	0.000000	0.000000	1.591210	0.000000	1.000000	-0.000024
0.325000	0.375000	0.000000	7	8	0	0.000000	0.000000	0.000000	1.465127	0.000000	1.000000	-0.000024
0.375000	0.375000	0.000000	8	8	0	0.000000	0.000000	0.000000	1.339154	0.000000	1.000000	-0.000024
0.425000	0.375000	0.000000	9	8	0	0.000000	0.000000	0.000000	1.229737	0.000000	1.000000	-0.000024
0.475000	0.375000	0.000000	10	8	0	0.000000	0.000000	0.000000	1.133645	0.000000	1.000000	-0.000024
0.525000	0.375000	0.000000	11	8	0	0.000000	0.000000	0.000000	1.045962	0.000000	1.000000	-0.000023
0.575000	0.375000	0.000000	12	8	0	0.000000	0.000000	0.000000	0.963814	0.000000	1.000000	-0.000023
0.625000	0.375000	0.000000	13	8	0	0.000000	0.000000	0.000000	0.885794	0.000000	1.000000	-0.000023
0.675000	0.375000	0.000000	14	8	0	0.000000	0.000000	0.000000	0.810855	0.000000	1.000000	-0.000023
0.725000	0.375000	0.000000	15	8	0	0.000000	0.000000	0.000000	0.737580	0.000000	1.000000	-0.000022
0.775000	0.375000	0.000000	16	8	0	0.000000	0.000000	0.000000	0.663867	0.000000	1.000000	-0.000022
0.825000	0.375000	0.000000	17	8	0	0.000000	0.000000	0.000000	0.586732	0.000000	1.000000	-0.000021
0.875000	0.375000	0.000000	18	8	0	0.000000	0.000000	0.000000	0.495878	0.000000	1.000000	-0.000020
0.925000	0.375000	0.000000	19	8	0	0.000000	0.000000	0.000000	0.377962	0.000000	1.000000	-0.000019
0.975000	0.375000	0.000000	20	8	0	0.000000	0.000000	0.000000	0.212040	0.000000	1.000000	-0.000019
1.000000	0.375000	0.000000	21	8	0	0.000000	0.000000	0.000000	0.000000	0.000000	1.000000	0.000000
0.000000	0.425000	0.000000	0	9	0	0.000000	0.000000	0.000000	1.000000	0.000000	1.000000	0.000000
0.025000	0.425000	0.000000	1	9	0	0.000000	0.000000	0.000000	1.158841	0.000000	1.000000	-0.000023
0.075000	0.425000	0.000000	2	9	0	0.000000	0.000000	0.000000	1.312661	0.000000	1.000000	-0.000023
0.125000	0.425000	0.000000	3	9	0	0.000000	0.000000	0.000000	1.445740	0.000000	1.000000	-0.000024
0.175000	0.425000	0.000000	4	9	0	0.000000	0.000000	0.000000	1.569774	0.000000	1.000000	-0.000024
0.225000	0.425000	0.000000	5	9	0	0.000000	0.000000	0.000000	1.646041	0.000000	1.000000	-0.000024
0.275000	0.425000	0.000000	6	9	0	0.000000	0.000000	0.000000	1.590251	0.000000	1.000000	-0.000024
0.325000	0.425000	0.000000	7	9	0	0.000000	0.000000	0.000000	1.464552	0.000000	1.000000	-0.000024
0.375000	0.425000	0.000000	8	9	0	0.000000	0.000000	0.000000	1.339171	0.000000	1.000000	-0.000024
0.425000	0.425000	0.000000	9	9	0	0.000000	0.000000	0.000000	1.230032	0.000000	1.000000	-0.000024
0.475000	0.425000	0.000000	10	9	0	0.000000	0.000000	0.000000	1.133925	0.000000	1.000000	-0.000024
0.525000	0.425000	0.000000	11	9	0	0.000000	0.000000	0.000000	1.046058	0.000000	1.000000	-0.000023
0.575000	0.425000	0.000000	12	9	0	0.000000	0.000000	0.000000	0.963672	0.000000	1.000000	-0.000023
0.625000	0.425000	0.000000	13	9	0	0.000000	0.000000	0.000000	0.885453	0.000000	1.000000	-0.000023
0.675000	0.425000	0.000000	14	9	0	0.000000	0.000000	0.000000	0.810406	0.000000	1.000000	-0.000023
0.725000	0.425000	0.000000	15	9	0	0.000000	0.000000	0.000000	0.737126	0.000000	1.000000	-0.000022
0.775000	0.425000	0.000000	16	9	0	0.000000	0.000000	0.000000	0.663486	0.000000	1.000000	-0.000022
0.825000	0.425000	0.000000	17	9	0	0.000000	0.000000	0.000000	0.586464	0.000000	1.000000	-0.000021
0.875000	0.425000	0.000000	18	9	0	0.000000	0.000000	0.000000	0.495795	0.000000	1.000000	-0.000020
0.925000	0.425000	0.000000	19	9	0	0.000000	0.000000	0.000000	0.378008	0.000000	1.000000	-0.000019
0.975000	0.425000	0.000000	20	9	0	0.000000	0.000000	0.000000	0.212156	0.000000	1.000000	-0.000019
1.000000	0.425000	0.000000	21	9	0	0.000000	0.000000	0.000000	0.000000	0.000000	1.000000	0.000000
0.000000	0.475000	0.000000	0	10	0	0.000000	0.000000	0.000000	1.000000	0.000000	1.000000	0.000000
0.025000	0.475000	0.000000	1	10	0	0.000000	0.000000	0.000000	1.158908	0.000000	1.000000	-0.000023
0.075000	0.475000	0.000000	2	10	0	0.000000	0.000000	0.000000	1.312892	0.000000	1.000000	-0.000023
0.125000	0.475000	0.000000	3	10	0	0.000000	0.000000	0.000000	1.446196	0.000000	1.000000	-0.000024
0.175000	0.475000	0.000000	4	10	0	0.000000	0.000000	0.000000	1.570342	0.000000	1.000000	-0.000024
0.225000	0.475000	0.000000	5	10	0	0.000000	0.000000	0.000000	1.646314	0.000000	1.000000	-0.000024
0.275000	0.475000	0.000000	6	10	0	0.000000	0.000000	0.000000	1.590110	0.000000	1.000000	-0.000024
0.325000	0.475000	0.000000	7	10	0	0.000000	0.000000	0.000000	1.464616	0.000000	1.000000	-0.000024
0.375000	0.475000	0.000000	8	10	0	0.000000	0.000000	0.000000	1.339464	0.000000	1.000000	-0.000024
0.425000	0.475000	0.000000	9	10	0	0.000000	0.000000	0.000000	1.230401	0.000000	1.000000	-0.000024
0.475000	0.475000	0.000000	10	10	0	0.000000	0.000000	0.000000	1.134249	0.000000	1.000000	-0.000024
0.525000	0.475000	0.000000	11	10	0	0.000000	0.000000	0.000000	1.046278	0.000000	1.000000	-0.000023
0.575000	0.475000	0.000000	12	10	0	0.000000	0.000000	0.000000	0.963776	0.000000	1.000000	-0.000023
0.625000	0.475000	0.000000	13	10	0	0.000000	0.000000	0.000000	0.885467	0.000000	1.000000	-0.000023
0.675000	0.475000	0.000000	14	10	0	0.000000	0.000000	0.000000	0.810376	0.000000	1.000000	-0.000023
0.725000	0.475000	0.000000	15	10	0	0.000000	0.000000	0.000000	0.737096	0.000000	1.000000	-0.000022
0.775000	0.475000	0.000000	16	10	0	0.000000	0.000000	0.000000	0.663484	0.000000	1.000000	-0.000022
0.825000	0.475000	0.000000	17	10	0	0.000000	0.000000	0.000000	0.586501	0.000000	1.000000	-0.000021
0.875000	0.475000	0.000000	18	10	0	0.000000	0.000000	0.000000	0.495892	0.000000	1.000000	-0.000020
0.925000	0.475000	0.000000	19	10	0	0.000000	0.000000	0.000000	0.378125	0.000000	1.000000	-0.000019
0.975000	0.475000	0.000000	20	10	0	0.000000	0.000000	0.000000	0.212255	0.000000	1.000000	-0.000019
1.000000	0.475000	0.000000	21	10	0	0.000000	0.000000	0.000000	0.000000	0.000000	1.000000	0.000000
0.000000	0.525000	0.000000	0	11	0	0.000000	0.000000	0.000000	1.000000	0.000000	1.000000	0.000000
0.025000	0.525000	0.000000	1	11	0	0.000000	0.000000	0.000000	1.158907	0.000000	1.000000	-0.000023
0.075000	0.525000	0.000000	2	11	0	0.000000	0.000000	0.000000	1.312890	0.000000	1.000000	-0.000023
0.125000	0.525000	0.000000	3	11	0	0.000000	0.000000	0.000000	1.446193	0.000000	1.000000	-0.000024
0.175000	0.525000	0.000000	4	11	0	0.000000	0.000000	0.000000	1.570340	0.000000	1.000000	-0.000024
0.225000	0.525000	0.000000	5	11	0	0.000000	0.000000	0.000000	1.646313	0.000000	1.000000	-0.000024
0.275000	0.525000	0.000000	6	11	0	0.000000	0.000000	0.000000	1.590114	0.000000	1.000000	-0.000024
0.325000	0.525000	0.000000	7	11	0	0.000000	0.000000	0.000000	1.464620	0.000000	1.000000	-0.000024
0.375000	0.525000	0.000000	8	11	0	0.000000	0.000000	0.000000	1.339466	0.000000	1.000000	-0.000024
0.425000	0.525000	0.000000	9	11	0	0.000000	0.000000	0.000000	1.230401	0.000000	1.000000	-0.000024
0.475000	0.525000	0.000000	10	11	0	0.000000	0.000000	0.000000	1.134249	0.000000	1.000000	-0.000024
0.525000	0.525000	0.000000	11	11	0	0.000000	0.000000	0.000000	1.046276	0.000000	1.000000	-0.000023
0.575000	0.525000	0.000000	12	11	0	0.000000	0.000000	0.000000	0.963775	0.000000	1.000000	-0.000023
0.625000	0.525000	0.000000	13	11	0	0.000000	0.000000	0.000000	0.885465	0.000000	1.000000	-0.000023
0.675000	0.525000	0.000000	14	11	0	0.000000	0.000000	0.000000	0.810374	0.000000	1.000000	-0.000023
0.725000	0.525000	0.000000	15	11	0	0.000000	0.000000	0.000000	0.737093	0.000000	1.000000	-0.000022
0.775000	0.525000	0.000000	16	11	0	0.000000	0.000000	0.000000	0.663481	0.000000	1.000000	-0.000022
0.825000	0.525000	0.000000	17	11	0	0.000000	0.000000	0.000000	0.586499	0.000000	1.000000	-0.000021
0.875000	0.525000	0.000000	18	11	0	0.000000	0.000000	0.000000	0.495890	0.000000	1.000000	-0.000020
0.925000	0.525000	0.000000	19	11	0	0.000000	0.000000	0.000000	0.378123	0.000000	1.000000	-0.000019
0.975000	0.525000	0.000000	20	11	0	0.000000	0.000000	0.000000	0.212254	0.000000	1.000000	-0.000019
1.000000	0.525000	0.000000	21	11	0	0.000000	0.000000	0.000000	0.000000	0.000000	1.000000	0.000000
0.000000	0.575000	0.000000	0	12	0	0.000000	0.000000	0.000000	1.000000	0.000000	1.000000	0.000000
0.025000	0.575000	0.000000	1	12	0	0.000000	0.000000	0.000000	1.158837	0.000000	1.000000	-0.000023
0.075000	0.575000	0.000000	2	12	0	0.000000	0.000000	0.000000	1.312653	0.000000	1.000000	-0.000023
0.125000	0.575000	0.000000	3	12	0	0.000000	0.000000	0.000000	1.445730	0.000000	1.000000	-0.000024
0.175000	0.575000	0.000000	4	12	0	0.000000	0.000000	0.000000	1.569764	0.000000	1.000000	-0.000024
0.225000	0.575000	0.000000	5	12	0	0.000000	0.000000	0.000000	1.646040	0.000000	1.000000	-0.000024
0.275000	0.575000	0.000000	6	12	0	0.000000	0.000000	0.000000	1.590265	0.000000	1.000000	-0.000024
0.325000	0.575000	0.000000	7	12	0	0.000000	0.000000	0.000000	1.464565	0.000000	1.000000	-0.000024
0.375000	0.575000	0.000000	8	12	0	0.000000	0.000000	0.000000	1.339178	0.000000	1.000000	-0.000024
0.425000	0.575000	0.000000	9	12	0	0.000000	0.000000	0.000000	1.230033	0.000000	1.000000	-0.000024
0.475000	0.575000	0.000000	10	12	0	0.000000	0.000000	0.000000	1.133923	0.000000	1.000000	-0.000024
0.525000	0.575000	0.000000	11	12	0	0.000000	0.000000	0.000000	1.046055	0.000000	1.000000	-0.000023
0.575000	0.575000	0.000000	12	12	0	0.000000	0.000000	0.000000	0.963668	0.000000	1.000000	-0.000023
0.625000	0.575000	0.000000	13	12	0	0.000000	0.000000	0.000000	0.885447	0.000000	1.000000	-0.000023
0.675000	0.575000	0.000000	14	12	0	0.000000	0.000000	0.000000	0.810400	0.000000	1.000000	-0.000023
0.725000	0.575000	0.000000	15	12	0	0.000000	0.000000	0.000000	0.737120	0.000000	1.000000	-0.000022
0.775000	0.575000	0.000000	16	12	0	0.000000	0.000000	0.000000	0.663480	0.000000	1.000000	-0.000022
0.825000	0.575000	0.000000	17	12	0	0.000000	0.000000	0.000000	0.586458	0.000000	1.000000	-0.000021
0.875000	0.575000	0.000000	18	12	0	0.000000	0.000000	0.000000	0.495789	0.000000	1.000000	-0.000020
0.925000	0.575000	0.000000	19	12	0	0.000000	0.000000	0.000000	0.378003	0.000000	1.000000	-0.000019
0.975000	0.575000	0.000000	20	12	0	0.000000	0.000000	0.000000	0.212152	0.000000	1.000000	-0.000019
1.000000	0.575000	0.000000	21	12	0	0.000000	0.000000	0.000000	0.000000	0.000000	1.000000	0.000000
0.000000	0.625000	0.000000	0	13	0	0.000000	0.000000	0.000000	1.000000	0.000000	1.000000	0.000000
0.025000	0.625000	0.000000	1	13	0	0.000000	0.000000	0.000000	1.158695	0.000000	1.000000	-0.000023
0.075000	0.625000	0.000000	2	13	0	0.000000	0.000000	0.000000	1.312162	0.000000	1.000000	-0.000023
0.125000	0.625000	0.000000	3	13	0	0.000000	0.000000	0.000000	1.444773	0.000000	1.000000	-0.000024
0.175000	0.625000	0.000000	4	13	0	0.000000	0.000000	0.000000	1.568612	0.000000	1.000000	-0.000024
0.225000	0.625000	0.000000	5	13	0	0.000000	0.000000	0.000000	1.645715	0.000000	1.000000	-0.000024
0.275000	0.625000	0.000000	6	13	0	0.000000	0.000000	0.000000	1.591245	0.000000	1.000000	-0.000024
0.325000	0.625000	0.000000	7	13	0	0.000000	0.000000	0.000000	1.465161	0.000000	1.000000	-0.000024
0.375000	0.625000	0.000000	8	13	0	0.000000	0.000000	0.000000	1.339173	0.000000	1.000000	-0.000024
0.425000	0.625000	0.000000	9	13	0	0.000000	0.000000	0.000000	1.229745	0.000000	1.000000	-0.000024
0.475000	0.625000	0.000000	10	13	0	0.000000	0.000000	0.000000	1.133646	0.000000	1.000000	-0.000024
0.525000	0.625000	0.000000	11	13	0	0.000000	0.000000	0.000000	1.045959	0.000000	1.000000	-0.000023
0.575000	0.625000	0.000000	12	13	0	0.000000	0.000000	0.000000	0.963809	0.000000	1.000000	-0.000023
0.625000	0.625000	0.000000	13	13	0	0.000000	0.000000	0.000000	0.885788	0.000000	1.000000	-0.000023
0.675000	0.625000	0.000000	14	13	0	0.000000	0.000000	0.000000	0.810848	0.000000	1.000000	-0.000023
0.725000	0.625000	0.000000	15	13	0	0.000000	0.000000	0.000000	0.737573	0.000000	1.000000	-0.000022
0.775000	0.625000	0.000000	16	13	0	0.000000	0.000000	0.000000	0.663860	0.000000	1.000000	-0.000022
0.825000	0.625000	0.000000	17	13	0	0.000000	0.000000	0.000000	0.586725	0.000000	1.000000	-0.000021
0.875000	0.625000	0.000000	18	13	0	0.000000	0.000000	0.000000	0.495872	0.000000	1.000000	-0.000020