VARIABLES = "X"
 "Y"
 "Z"
 "I"
 "J"
 "K"
 "U"
 "V"
 "W"
 "T"
 "Xi"
 "FlagP"
 "P"
ZONE
DT=(DOUBLE,DOUBLE,DOUBLE,DOUBLE,DOUBLE,DOUBLE,DOUBLE,DOUBLE,DOUBLE,DOUBLE,DOUBLE,DOUBLE,DOUBLE)
                      0                     0.5                     0.5                       0                    10.5        10.5000002980233                       0                       0                       0                       1                       0                       1  -2.49999909961812E-006 
     0.0101010101010101                     0.5                     0.5       0.404040398019733                    10.5        10.5000002980233   2.56565658755205E-005   1.01009921418851E-007   -0.000692323225610184        1.15696221898011                       0       0.191919203960534  -2.49999909961812E-006 
     0.0202020202020202                     0.5                     0.5       0.808080796039466                    10.5        10.5000002980233   5.13131290688313E-005   2.02019991849459E-007    -0.00138464648847329         1.3139244500376                       0      -0.616161592078932  -2.49999909961812E-006 
     0.0303030303030303                     0.5                     0.5        1.10606059307853                    10.5        10.5000002980233   7.23560580463851E-005   2.76514806670486E-007    -0.00165856066042164        1.43595667223015                       0                      -1  -2.49999909961812E-006 
     0.0404040404040404                     0.5                     0.5        1.30808078456256                    10.5        10.5000002980233   8.92247434989208E-005   3.27019759593211E-007     -0.0015539142040235        1.52638555932201                       0                      -1  -2.49999909961812E-006 
     0.0505050505050505                     0.5                     0.5        1.51010097604659                    10.5        10.5000002980233    0.000106093420904823   3.77524563504178E-007    -0.00144926772199536        1.61681446323221                       0                      -1  -2.49999909961812E-006 
     0.0606060606060606                     0.5                     0.5        1.71212116753062                    10.5        10.5000002980233    0.000122962106357358   4.28029516426904E-007    -0.00134462126559721        1.70724335032407                       0                      -1  -2.49999909961812E-006 
     0.0707070707070707                     0.5                     0.5        1.91414135901465                    10.5        10.5000002980233    0.000139830791809894   4.78534469349629E-007    -0.00123997480919907        1.79767223741593                       0                      -1  -2.49999909961812E-006 
     0.0808080808080808                     0.5                     0.5        2.11616156348074                    10.5        10.5000002980233    0.000149787865726357   4.70958682032507E-007    -0.00108654048473048        1.85487262098291                       0                      -1  -2.49999909961812E-006 
     0.0909090909090909                     0.5                     0.5        2.31818177754229                    10.5        10.5000002980233    0.000154636351035329   4.20453600099319E-007    -0.00089704551858555         1.8875127766399                       0                      -1  -2.49999909961812E-006 
      0.101010101010101                     0.5                     0.5        2.52020199160383                    10.5        10.5000002980233    0.000159484826211513   3.69948369154382E-007    -0.00070755054171176        1.92015293490865                       0                      -1  -2.49999909961812E-006 
      0.111111111111111                     0.5                     0.5        2.72222220566538                    10.5        10.5000002980233    0.000164333311520485   3.19443287221194E-007   -0.000518055575566832        1.95279309056564                       0                      -1  -2.49999909961812E-006 
      0.121212121212121                     0.5                     0.5        2.92424241972692                    10.5        10.5000002980233    0.000169181796829457   2.68938205288007E-007   -0.000328560609421903        1.98543324622264                       0                      -1  -2.49999909961812E-006 
      0.131313131313131                     0.5                     0.5        3.12626263378847                    10.5        10.5000002980233    0.000174472201046954   2.18433273871658E-007   -0.000162739892830186        1.99872096165013                       0                      -1  -2.49999909961812E-006 
      0.141414141414141                     0.5                     0.5        3.32828284785001                    10.5        10.5000002980233    0.000180027756609565   1.67928432765414E-007   -1.1123725970396E-005        2.00039721293992                       0                      -1  -2.49999909961812E-006 
      0.151515151515152                     0.5                     0.5        3.53030306191156                    10.5        10.5000002980233    0.000185583306509728   1.17423740670563E-007    0.000140492427478346          2.002073460269                       0                      -1  -2.49999909961812E-006 
      0.161616161616162                     0.5                     0.5         3.7323232759731                    10.5        10.5000002980233    0.000191138862072339   6.69188995643191E-008    0.000292108594338137        2.00374971155879                       0                      -1  -2.49999909961812E-006 
      0.171717171717172                     0.5                     0.5        3.93434349003465                    10.5        10.5000002980233     0.00019669441763495   1.64140584580748E-008    0.000443724761197927        2.00542596284858                       0                      -1  -2.49999909961812E-006 
      0.181818181818182                     0.5                     0.5        4.13636370409619                    10.5        10.5000002980233    0.000208522703725177    2.4383703156333E-013    0.000557022735070313        2.00142863212595                       0                      -1  -2.49999909961812E-006 
      0.191919191919192                     0.5                     0.5        4.33838391815774                    10.5        10.5000002980233    0.000223371189340827   6.05077446753688E-013    0.000651871233428621        1.99469958040462                       0                      -1  -2.49999909961812E-006 
      0.202020202020202                     0.5                     0.5        4.54040413221928                    10.5        10.5000002980233    0.000238219675254507   9.66317861944047E-013    0.000746719714799582        1.98797052476441                       0                      -1  -2.49999909961812E-006 
      0.212121212121212                     0.5                     0.5        4.74242434628083                    10.5        10.5000002980233    0.000253068160870157   1.32755827713441E-012    0.000841568213157889        1.98124147304308                       0                      -1  -2.49999909961812E-006 
      0.222222222222222                     0.5                     0.5        4.94444456034237                    10.5        10.5000002980233    0.000267916646485807   1.68879869232476E-012    0.000936416711516196        1.97451242132176                       0                      -1  -2.49999909961812E-006 
      0.232323232323232                     0.5                     0.5        5.14646473075402                    10.5        10.5000002980233     0.00028781816221633   1.87543941332034E-012     0.00098893686892899        1.96787005973838                       0                      -1  -2.49999909961812E-006 
      0.242424242424242                     0.5                     0.5        5.34848488460887                    10.5        10.5000002980233    0.000309636338869435   1.99585286011599E-012     0.00102540149626108        1.96126058052378                       0                      -1  -2.49999909961812E-006 
      0.252525252525253                     0.5                     0.5        5.55050503846371                    10.5        10.5000002980233    0.000331454521482996   2.11626630691168E-012     0.00106186611793073        1.95465109979136                       0                      -1  -2.49999909961812E-006 
      0.262626262626263                     0.5                     0.5        5.75252519231856                    10.5        10.5000002980233    0.000353272698136102   2.23667975370733E-012     0.00109833074526282        1.94804162057676                       0                      -1  -2.49999909961812E-006 
      0.272727272727273                     0.5                     0.5         5.9545453461734                    10.5        10.5000002980233    0.000375090874789208   2.35709320050298E-012      0.0011347953725949        1.94143214136217                       0                      -1  -2.49999909961812E-006 
      0.282828282828283                     0.5                     0.5        6.15656559334859                    10.5        10.5000002980233    0.000396595931367372  -3.91390337596539E-008     0.00113391913460848        1.93664276084405                       0                      -1  -2.49999909961812E-006 
      0.292929292929293                     0.5                     0.5        6.35858586761687                    10.5        10.5000002980233    0.000418010081809701  -8.96441276284268E-008     0.00112220196355358        1.93238179786468                       0                      -1  -2.49999909961812E-006 
      0.303030303030303                     0.5                     0.5        6.56060614188515                    10.5        10.5000002980233    0.000439424241788789   -1.4014907248546E-007     0.00111048479905518        1.92812083549436                       0                      -1  -2.49999909961812E-006 
      0.313131313131313                     0.5                     0.5        6.76262641615343                    10.5        10.5000002980233    0.000460838392231118  -1.90654166354233E-007     0.00109876762800028        1.92385987251499                       0                      -1  -2.49999909961812E-006 
      0.323232323232323                     0.5                     0.5        6.96464669042172                    10.5        10.5000002980233    0.000482252542673447  -2.41159260223006E-007     0.00108705045694538        1.91959890953562                       0                      -1  -2.49999909961812E-006 
      0.333333333333333                     0.5                     0.5        7.16666686534877                    10.5        10.5000002980233    0.000499000006350683  -2.49997689085539E-007     0.00105416659865061        1.91814620496961                       0                      -1  -2.49999909961812E-006 
      0.343434343434343                     0.5                     0.5        7.36868701920361                    10.5        10.5000002980233    0.000514757574866522  -2.49997806709849E-007     0.00101679287370391        1.91728918671281                       0                      -1  -2.49999909961812E-006 
      0.353535353535354                     0.5                     0.5        7.57070717305846                    10.5        10.5000002980233    0.000530515154707247  -2.49997924334168E-007    0.000979419159486077        1.91643216982227                       0                      -1  -2.49999909961812E-006 
      0.363636363636364                     0.5                     0.5         7.7727273269133                    10.5        10.5000002980233    0.000546272723223086  -2.49998041958478E-007    0.000942045434539378        1.91557515156547                       0                      -1  -2.49999909961812E-006 
      0.373737373737374                     0.5                     0.5        7.97474748076814                    10.5        10.5000002980233    0.000562030291738925  -2.49998159582788E-007    0.000904671709592679        1.91471813330867                       0                      -1  -2.49999909961812E-006 
      0.383838383838384                     0.5                     0.5        8.17676763462299                    10.5        10.5000002980233    0.000572308068157113  -2.94190273600408E-007    0.000862878785853583        1.91705658853414                       0                      -1  -2.58838291670646E-006 
      0.393939393939394                     0.5                     0.5        8.37878778847783                    10.5        10.5000002980233    0.000581803017132779   -3.4469552995993E-007    0.000820454548001287        1.91985153997135                       0                      -1  -2.68939299337886E-006 
      0.404040404040404                     0.5                     0.5        8.58080794233268                    10.5        10.5000002980233    0.000591297975645196  -3.95200935331014E-007    0.000778030319089689        1.92264649255208                       0                      -1  -2.79040336807459E-006 
      0.414141414141414                     0.5                     0.5        8.78282809618752                    10.5        10.5000002980233    0.000600792924620863  -4.45706191690536E-007    0.000735606081237393         1.9254414439893                       0                      -1  -2.89141344474698E-006 
      0.424242424242424                     0.5                     0.5        8.98484825004237                    10.5        10.5000002980233    0.000610287873596529  -4.96211448050058E-007    0.000693181843385096        1.92823639542652                       0                      -1  -2.99242352141938E-006 
      0.434343434343434                     0.5                     0.5         9.1868685152795                    10.5        10.5000002980233    0.000615624998875417   -4.5328246696035E-007    0.000657391426878083        1.93376013714796                       0                      -1  -3.09343364316067E-006 
      0.444444444444444                     0.5                     0.5        9.38888878954778                    10.5        10.5000002980233    0.000620624997579091  -4.02777608013346E-007    0.000622138896927551        1.93950513589954                       0                      -1  -3.19444376855626E-006 
      0.454545454545455                     0.5                     0.5        9.59090906381606                    10.5        10.5000002980233    0.000625625001796186  -3.52272600054584E-007    0.000586886373235505        1.94525013536444                       0                      -1  -3.29545359592856E-006 
      0.464646464646465                     0.5                     0.5        9.79292933808434                    10.5        10.5000002980233     0.00063062500049986   -3.0176774110758E-007    0.000551633843284973        1.95099513411602                       0                      -1  -3.39646372132415E-006 
      0.474747474747475                     0.5                     0.5        9.99494961235262                    10.5        10.5000002980233    0.000635624999203534  -2.51262882160576E-007    0.000516381313334441        1.95674013286761                       0                      -1  -3.49747384671974E-006 
      0.484848484848485                     0.5                     0.5        10.1969698866209                    10.5        10.5000002980233    0.000637867427159843  -2.50000410771161E-007    0.000492651509170929        1.96421293105112                       0                      -1  -3.49999904024998E-006 
      0.494949494949495                     0.5                     0.5        10.3989901608892                    10.5        10.5000002980233    0.000640039149885631  -2.50000534137292E-007    0.000469217152362224        1.97173003071167                       0                      -1  -3.49999904024998E-006 
      0.505050505050505                     0.5                     0.5        10.6010104351575                    10.5        10.5000002980233    0.000642210873952535  -2.50000657503414E-007    0.000445782799725852         1.9792471307881                       0                      -1  -3.49999904024998E-006 
      0.515151515151515                     0.5                     0.5        10.8030307094258                    10.5        10.5000002980233    0.000644382596678323  -2.50000780869544E-007    0.000422348442917147        1.98676423044865                       0                      -1  -3.49999904024998E-006 
      0.525252525252525                     0.5                     0.5        11.0050509806834                    10.5        10.5000002980233    0.000646497495700382  -2.48738159707885E-007    0.000399201992417345        1.99429756205108                       0                      -1  -3.49999904024998E-006 
      0.535353535353535                     0.5                     0.5        11.2070711345383                    10.5        10.5000002980233    0.000646396484854314  -1.98233270330451E-007    0.000387282800774727        2.00246387809201                       0                      -1  -3.49999904024998E-006 
      0.545454545454545                     0.5                     0.5        11.4090912883931                    10.5        10.5000002980233    0.000646295474008246  -1.47728380953017E-007     0.00037536360913211        2.01063019413293                       0                      -1  -3.49999904024998E-006 
      0.555555555555556                     0.5                     0.5         11.611111442248                    10.5        10.5000002980233     0.00064619446167205  -9.72236405871632E-008    0.000363444421065765         2.0187965103716                       0                      -1  -3.49999904024997E-006 
      0.565656565656566                     0.5                     0.5        11.8131315961028                    10.5        10.5000002980233    0.000646093450825982  -4.67187512097292E-008    0.000351525229423147        2.02696282641252                       0                      -1  -3.49999904024997E-006 
      0.575757575757576                     0.5                     0.5        12.0151517499576                    10.5        10.5000002980233      0.0006458257707842  -7.57766701227867E-009    0.000340363625755369        2.03511981237574                       0                      -1  -3.49999904024998E-006 
      0.585858585858586                     0.5                     0.5        12.2171719038125                    10.5        10.5000002980233    0.000643502538963318  -1.08587795850929E-007    0.000338545448164826        2.04316172933821                       0                      -1  -3.49999904024998E-006 
      0.595959595959596                     0.5                     0.5        12.4191920576673                    10.5        10.5000002980233    0.000641179307142435  -2.09597924689579E-007    0.000336727270574284        2.05120364630067                       0                      -1  -3.49999904024998E-006 
      0.606060606060606                     0.5                     0.5        12.6212122115222                    10.5        10.5000002980233    0.000638856071447237   -3.1060805352823E-007    0.000334909097156065        2.05924556314991                       0                      -1  -3.49999904024998E-006 
      0.616161616161616                     0.5                     0.5         12.823232365377                    10.5        10.5000002980233    0.000636532839626354  -4.11618182366881E-007    0.000333090919565522        2.06728748011238                       0                      -1  -3.49999904024998E-006 
      0.626262626262626                     0.5                     0.5        13.0252525192319                    10.5        10.5000002980233    0.000633843446428255  -4.93688912048285E-007    0.000332156579528624        2.07527350870269                       0                      -1  -3.49999904024998E-006 
      0.636363636363636                     0.5                     0.5        13.2272726730867                    10.5        10.5000002980233    0.000628590923589642  -4.43183847628959E-007    0.000337409102367237        2.08286831868788                       0                      -1  -3.49999904024998E-006 
      0.646464646464647                     0.5                     0.5        13.4292928269415                    10.5        10.5000002980233    0.000623338400751029  -3.92678783209634E-007     0.00034266162520585        2.09046312867307                       0                      -1  -3.49999904024997E-006 
      0.656565656565657                     0.5                     0.5        13.6313129807964                    10.5        10.5000002980233     0.00061808587374011  -3.42173569778567E-007    0.000347914152812837        2.09805793801437                       0                      -1  -3.49999904024998E-006 
      0.666666666666667                     0.5                     0.5        13.8333331346512                    10.5        10.5000002980233    0.000612833350901497  -2.91668505359242E-007     0.00035316667565145        2.10565274799957                       0                      -1  -3.49999904024998E-006 
      0.676767676767677                     0.5                     0.5        14.0353532885061                    10.5        10.5000002980233    0.000606909114582183  -2.41163419867703E-007    0.000358967174518802        2.11317617379316                       0                      -1  -3.49999904024998E-006 
      0.686868686868687                     0.5                     0.5        14.2373734423609                    10.5        10.5000002980233    0.000597818203111228   -1.9065823503492E-007    0.000367351010067282        2.12036307136118                       0                      -1  -3.49999904024998E-006 
      0.696969696969697                     0.5                     0.5        14.4393935962158                    10.5        10.5000002980233    0.000588727291640273  -1.40153050202137E-007    0.000375734845615761        2.12754996892921                       0                      -1  -3.49999904024998E-006 
      0.707070707070707                     0.5                     0.5        14.6414137500706                    10.5        10.5000002980233    0.000579636376593028  -8.96480143810957E-008    0.000384118686826692         2.1347368650922                       0                      -1  -3.49999904024997E-006 
      0.717171717171717                     0.5                     0.5        14.8434339039254                    10.5        10.5000002980233    0.000570545465122073  -3.91428295483128E-008    0.000392502522375171        2.14192376266022                       0                      -1  -3.49999904024997E-006 
      0.727272727272727                     0.5                     0.5        15.0454541119658                    10.5        10.5000002980233    0.000560409109260134   1.13624100608082E-008    0.000399159103994354        2.14893645027786                       0                      -1  -3.49999904024997E-006 
      0.737373737373737                     0.5                     0.5        15.2474745066477                    10.5        10.5000002980233    0.000546671729530305    6.1867838346534E-008    0.000399866174880164        2.15534907327728                       0                      -1  -3.49999904024998E-006 
      0.747474747474748                     0.5                     0.5        15.4494949013295                    10.5        10.5000002980233    0.000532934349800476    1.1237326663226E-007    0.000400573245765974         2.1617616962767                       0                      -1  -3.49999904024997E-006 
      0.757575757575758                     0.5                     0.5        15.6515152960114                    10.5        10.5000002980233    0.000519196968282511   1.62878545906414E-007    0.000401280322314217        2.16817431706541                       0                      -1  -3.49999904024998E-006 
      0.767676767676768                     0.5                     0.5        15.8535356906933                    10.5        10.5000002980233    0.000505459588552683    2.1338397419214E-007    0.000401987393200027        2.17458694006483                       0                      -1  -3.49999904024997E-006 
      0.777777777777778                     0.5                     0.5        16.0555560191471                    10.5        10.5000002980233    0.000490277753914191   2.63889416056578E-007    0.000391888818716169        2.17973940891494                       0                      -1  -3.49999904024998E-006 
      0.787878787878788                     0.5                     0.5         16.257576173002                    10.5        10.5000002980233    0.000471287855962857   3.14394893719014E-007    0.000353302970966105        2.18156969252016                       0                      -1  -3.49999904024998E-006 
      0.797979797979798                     0.5                     0.5        16.4595963268568                    10.5        10.5000002980233    0.000452297958011524    3.6490037138145E-007    0.000314717123216041        2.18339997612537                       0                      -1  -3.49999904024998E-006 
      0.808080808080808                     0.5                     0.5        16.6616164807117                    10.5        10.5000002980233    0.000433308061252293   4.15405998055458E-007     0.00027613128142645        2.18523025726841                       0                      -1  -3.49999904024998E-006 
      0.818181818181818                     0.5                     0.5        16.8636366345665                    10.5        10.5000002980233    0.000414318163300959   4.65911475717894E-007    0.000237545433676386        2.18706054087363                       0                      -1  -3.49999904024998E-006 
      0.828282828282828                     0.5                     0.5        17.0656567884213                    10.5        10.5000002980233    0.000393358562941034   4.67174341236724E-007    0.000165047854452689        2.18255113012909                       0                      -1  -3.49999904024998E-006 
      0.838383838383838                     0.5                     0.5        17.2676769422762                    10.5        10.5000002980233    0.000368308064201885   3.66164639423351E-007   2.21185964550401E-005        2.16487473272352                       0                      -1  -3.49999904024998E-006 
      0.848484848484849                     0.5                     0.5         17.469697096131                    10.5        10.5000002980233    0.000343257565462735   2.65154937609977E-007    -0.00012081066154261        2.14719833531794                       0                      -1  -3.49999904024997E-006 
      0.858585858585859                     0.5                     0.5        17.6717172499859                    10.5        10.5000002980233    0.000318207069107764   1.64145235796426E-007   -0.000263739912089675        2.12952193682864                       0                      -1  -3.49999904024998E-006 
      0.868686868686869                     0.5                     0.5        17.8737374038407                    10.5        10.5000002980233    0.000293156570368614   6.31355339830519E-008   -0.000406669170087325        2.11184553942306                       0                      -1  -3.49999904024998E-006 
      0.878787878787879                     0.5                     0.5        18.0757575576956                    10.5        10.5000002980233     0.00026643940507154   3.78832226471514E-008     -0.0006063787205393        2.07262806465548                       0                      -1  -3.49999904024997E-006 
      0.888888888888889                     0.5                     0.5        18.2777777115504                    10.5        10.5000002980233    0.000236944462177926   1.38893228773704E-007   -0.000900722091748485        1.99750879428455                       0                      -1  -3.49999904024997E-006 
      0.898989898989899                     0.5                     0.5        18.4797978654053                    10.5        10.5000002980233    0.000207449519284311   2.39903234900259E-007    -0.00119506546295767        1.92238952391363                       0                      -1  -3.49999904024998E-006 
      0.909090909090909                     0.5                     0.5        18.6818180192601                    10.5        10.5000002980233    0.000177954576986746   3.40913241026803E-007    -0.00148940882999453        1.84727025422155                       0                      -1  -3.49999904024998E-006 
      0.919191919191919                     0.5                     0.5        18.8838381731149                    10.5        10.5000002980233    0.000148459634093131   4.41923247153357E-007    -0.00178375220120372        1.77215098385062                       0                      -1  -3.49999904024998E-006 
      0.929292929292929                     0.5                     0.5        19.0858583269698                    10.5        10.5000002980233    0.000122570741059797   4.78539374561979E-007    -0.00204589869951937        1.64555743051902                       0                      -1  -3.49999904024998E-006 
      0.939393939393939                     0.5                     0.5        19.2878784808246                    10.5        10.5000002980233    0.000101560644928202   4.28033951201018E-007    -0.00226448451237448        1.44932186391577                       0                      -1  -3.49999904024998E-006 
       0.94949494949495                     0.5                     0.5        19.4898986346795                    10.5        10.5000002980233   8.05505487966077E-005   3.77528527840058E-007    -0.00248307032522959        1.25308629731253                       0                      -1  -3.49999904024998E-006 