TITLE = "dt=0.100000s, t=1830.000000s, nu=0.000016, Lx=1.000000, Ly=1.000000, Lz=1.000000, Nx=12, Ny=12, Nz=12 "
VARIABLES =X, Y, Z, I, J, K, U, V, W, T, Xi, FlagP, P 
ZONE F=POINT, I=12, J=12, K=12
0.000000	0.000000	0.000000	0	0	0	0.000000	0.000000	0.000000	-13.426184	0.000000	1.000000	0.000000
0.050000	0.000000	0.000000	1	0	0	0.000000	0.000000	0.000000	-13.426184	0.000000	1.000000	0.000000
0.150000	0.000000	0.000000	2	0	0	0.000000	0.000000	0.000000	-13.426184	0.000000	1.000000	0.000000
0.250000	0.000000	0.000000	3	0	0	0.000000	0.000000	0.000000	-13.426184	0.000000	1.000000	0.000000
0.350000	0.000000	0.000000	4	0	0	0.000000	0.000000	0.000000	-13.426184	0.000000	1.000000	0.000000
0.450000	0.000000	0.000000	5	0	0	0.000000	0.000000	0.000000	-13.426184	0.000000	1.000000	0.000000
0.550000	0.000000	0.000000	6	0	0	0.000000	0.000000	0.000000	-13.426184	0.000000	1.000000	0.000000
0.650000	0.000000	0.000000	7	0	0	0.000000	0.000000	0.000000	-13.426184	0.000000	1.000000	0.000000
0.750000	0.000000	0.000000	8	0	0	0.000000	0.000000	0.000000	-13.426184	0.000000	1.000000	0.000000
0.850000	0.000000	0.000000	9	0	0	0.000000	0.000000	0.000000	-13.426184	0.000000	1.000000	0.000000
0.950000	0.000000	0.000000	10	0	0	0.000000	0.000000	0.000000	-13.426184	0.000000	1.000000	0.000000
1.000000	0.000000	0.000000	11	0	0	0.000000	0.000000	0.000000	-13.425309	0.000000	1.000000	0.000000
0.000000	0.050000	0.000000	0	1	0	0.000000	0.000000	0.000000	-13.426184	0.000000	1.000000	0.000000
0.050000	0.050000	0.000000	1	1	0	0.000000	0.000000	0.000000	-12.528753	0.000000	1.000000	0.550511
0.150000	0.050000	0.000000	2	1	0	0.000000	0.000000	0.000000	-12.528753	0.000000	1.000000	0.550497
0.250000	0.050000	0.000000	3	1	0	0.000000	0.000000	0.000000	-12.528753	0.000000	1.000000	0.550387
0.350000	0.050000	0.000000	4	1	0	0.000000	0.000000	0.000000	-12.528753	0.000000	1.000000	0.550280
0.450000	0.050000	0.000000	5	1	0	0.000000	0.000000	0.000000	-12.528753	0.000000	1.000000	0.550196
0.550000	0.050000	0.000000	6	1	0	0.000000	0.000000	0.000000	-12.528753	0.000000	1.000000	0.550130
0.650000	0.050000	0.000000	7	1	0	0.000000	0.000000	0.000000	-12.528753	0.000000	1.000000	0.550074
0.750000	0.050000	0.000000	8	1	0	0.000000	0.000000	0.000000	-12.528753	0.000000	1.000000	0.550023
0.850000	0.050000	0.000000	9	1	0	0.000000	0.000000	0.000000	-12.528753	0.000000	1.000000	0.549963
0.950000	0.050000	0.000000	10	1	0	0.000000	0.000000	0.000000	-12.528753	0.000000	1.000000	0.549877
1.000000	0.050000	0.000000	11	1	0	0.000000	0.000000	0.000000	-13.424871	0.000000	1.000000	0.000000
0.000000	0.150000	0.000000	0	2	0	0.000000	0.000000	0.000000	-13.426184	0.000000	1.000000	0.000000
0.050000	0.150000	0.000000	1	2	0	0.000000	0.000000	0.000000	-12.528753	0.000000	1.000000	0.550497
0.150000	0.150000	0.000000	2	2	0	0.000000	0.000000	0.000000	-12.528753	0.000000	1.000000	0.550384
0.250000	0.150000	0.000000	3	2	0	0.000000	0.000000	0.000000	-12.528753	0.000000	1.000000	0.550212
0.350000	0.150000	0.000000	4	2	0	0.000000	0.000000	0.000000	-12.528753	0.000000	1.000000	0.550072
0.450000	0.150000	0.000000	5	2	0	0.000000	0.000000	0.000000	-12.528753	0.000000	1.000000	0.549968
0.550000	0.150000	0.000000	6	2	0	0.000000	0.000000	0.000000	-12.528753	0.000000	1.000000	0.549891
0.650000	0.150000	0.000000	7	2	0	0.000000	0.000000	0.000000	-12.528753	0.000000	1.000000	0.549837
0.750000	0.150000	0.000000	8	2	0	0.000000	0.000000	0.000000	-12.528753	0.000000	1.000000	0.549804
0.850000	0.150000	0.000000	9	2	0	0.000000	0.000000	0.000000	-12.528753	0.000000	1.000000	0.549788
0.950000	0.150000	0.000000	10	2	0	0.000000	0.000000	0.000000	-12.528753	0.000000	1.000000	0.549707
1.000000	0.150000	0.000000	11	2	0	0.000000	0.000000	0.000000	-13.424871	0.000000	1.000000	0.000000
0.000000	0.250000	0.000000	0	3	0	0.000000	0.000000	0.000000	-13.426184	0.000000	1.000000	0.000000
0.050000	0.250000	0.000000	1	3	0	0.000000	0.000000	0.000000	-12.528753	0.000000	1.000000	0.550387
0.150000	0.250000	0.000000	2	3	0	0.000000	0.000000	0.000000	-12.528753	0.000000	1.000000	0.550212
0.250000	0.250000	0.000000	3	3	0	0.000000	0.000000	0.000000	-12.528753	0.000000	1.000000	0.550036
0.350000	0.250000	0.000000	4	3	0	0.000000	0.000000	0.000000	-12.528753	0.000000	1.000000	0.549909
0.450000	0.250000	0.000000	5	3	0	0.000000	0.000000	0.000000	-12.528753	0.000000	1.000000	0.549826
0.550000	0.250000	0.000000	6	3	0	0.000000	0.000000	0.000000	-12.528753	0.000000	1.000000	0.549775
0.650000	0.250000	0.000000	7	3	0	0.000000	0.000000	0.000000	-12.528753	0.000000	1.000000	0.549757
0.750000	0.250000	0.000000	8	3	0	0.000000	0.000000	0.000000	-12.528753	0.000000	1.000000	0.549781
0.850000	0.250000	0.000000	9	3	0	0.000000	0.000000	0.000000	-12.528753	0.000000	1.000000	0.549862
0.950000	0.250000	0.000000	10	3	0	0.000000	0.000000	0.000000	-12.528753	0.000000	1.000000	0.549824
1.000000	0.250000	0.000000	11	3	0	0.000000	0.000000	0.000000	-13.424871	0.000000	1.000000	0.000000
0.000000	0.350000	0.000000	0	4	0	0.000000	0.000000	0.000000	-13.426184	0.000000	1.000000	0.000000
0.050000	0.350000	0.000000	1	4	0	0.000000	0.000000	0.000000	-12.528753	0.000000	1.000000	0.550280
0.150000	0.350000	0.000000	2	4	0	0.000000	0.000000	0.000000	-12.528753	0.000000	1.000000	0.550072
0.250000	0.350000	0.000000	3	4	0	0.000000	0.000000	0.000000	-12.528753	0.000000	1.000000	0.549909
0.350000	0.350000	0.000000	4	4	0	0.000000	0.000000	0.000000	-12.528753	0.000000	1.000000	0.549815
0.450000	0.350000	0.000000	5	4	0	0.000000	0.000000	0.000000	-12.528753	0.000000	1.000000	0.549768
0.550000	0.350000	0.000000	6	4	0	0.000000	0.000000	0.000000	-12.528753	0.000000	1.000000	0.549756
0.650000	0.350000	0.000000	7	4	0	0.000000	0.000000	0.000000	-12.528753	0.000000	1.000000	0.549785
0.750000	0.350000	0.000000	8	4	0	0.000000	0.000000	0.000000	-12.528753	0.000000	1.000000	0.549869
0.850000	0.350000	0.000000	9	4	0	0.000000	0.000000	0.000000	-12.528753	0.000000	1.000000	0.550033
0.950000	0.350000	0.000000	10	4	0	0.000000	0.000000	0.000000	-12.528753	0.000000	1.000000	0.550042
1.000000	0.350000	0.000000	11	4	0	0.000000	0.000000	0.000000	-13.424871	0.000000	1.000000	0.000000
0.000000	0.450000	0.000000	0	5	0	0.000000	0.000000	0.000000	-13.426184	0.000000	1.000000	0.000000
0.050000	0.450000	0.000000	1	5	0	0.000000	0.000000	0.000000	-12.528753	0.000000	1.000000	0.550196
0.150000	0.450000	0.000000	2	5	0	0.000000	0.000000	0.000000	-12.528753	0.000000	1.000000	0.549968
0.250000	0.450000	0.000000	3	5	0	0.000000	0.000000	0.000000	-12.528753	0.000000	1.000000	0.549826
0.350000	0.450000	0.000000	4	5	0	0.000000	0.000000	0.000000	-12.528753	0.000000	1.000000	0.549768
0.450000	0.450000	0.000000	5	5	0	0.000000	0.000000	0.000000	-12.528753	0.000000	1.000000	0.549762
0.550000	0.450000	0.000000	6	5	0	0.000000	0.000000	0.000000	-12.528753	0.000000	1.000000	0.549790
0.650000	0.450000	0.000000	7	5	0	0.000000	0.000000	0.000000	-12.528753	0.000000	1.000000	0.549856
0.750000	0.450000	0.000000	8	5	0	0.000000	0.000000	0.000000	-12.528753	0.000000	1.000000	0.549981
0.850000	0.450000	0.000000	9	5	0	0.000000	0.000000	0.000000	-12.528753	0.000000	1.000000	0.550199
0.950000	0.450000	0.000000	10	5	0	0.000000	0.000000	0.000000	-12.528753	0.000000	1.000000	0.550220
1.000000	0.450000	0.000000	11	5	0	0.000000	0.000000	0.000000	-13.424871	0.000000	1.000000	0.000000
0.000000	0.550000	0.000000	0	6	0	0.000000	0.000000	0.000000	-13.426184	0.000000	1.000000	0.000000
0.050000	0.550000	0.000000	1	6	0	0.000000	0.000000	0.000000	-12.528753	0.000000	1.000000	0.550130
0.150000	0.550000	0.000000	2	6	0	0.000000	0.000000	0.000000	-12.528753	0.000000	1.000000	0.549891
0.250000	0.550000	0.000000	3	6	0	0.000000	0.000000	0.000000	-12.528753	0.000000	1.000000	0.549775
0.350000	0.550000	0.000000	4	6	0	0.000000	0.000000	0.000000	-12.528753	0.000000	1.000000	0.549756
0.450000	0.550000	0.000000	5	6	0	0.000000	0.000000	0.000000	-12.528753	0.000000	1.000000	0.549790
0.550000	0.550000	0.000000	6	6	0	0.000000	0.000000	0.000000	-12.528753	0.000000	1.000000	0.549854
0.650000	0.550000	0.000000	7	6	0	0.000000	0.000000	0.000000	-12.528753	0.000000	1.000000	0.549959
0.750000	0.550000	0.000000	8	6	0	0.000000	0.000000	0.000000	-12.528753	0.000000	1.000000	0.550130
0.850000	0.550000	0.000000	9	6	0	0.000000	0.000000	0.000000	-12.528753	0.000000	1.000000	0.550400
0.950000	0.550000	0.000000	10	6	0	0.000000	0.000000	0.000000	-12.528753	0.000000	1.000000	0.550430
1.000000	0.550000	0.000000	11	6	0	0.000000	0.000000	0.000000	-13.424871	0.000000	1.000000	0.000000
0.000000	0.650000	0.000000	0	7	0	0.000000	0.000000	0.000000	-13.426184	0.000000	1.000000	0.000000
0.050000	0.650000	0.000000	1	7	0	0.000000	0.000000	0.000000	-12.528753	0.000000	1.000000	0.550074
0.150000	0.650000	0.000000	2	7	0	0.000000	0.000000	0.000000	-12.528753	0.000000	1.000000	0.549837
0.250000	0.650000	0.000000	3	7	0	0.000000	0.000000	0.000000	-12.528753	0.000000	1.000000	0.549757
0.350000	0.650000	0.000000	4	7	0	0.000000	0.000000	0.000000	-12.528753	0.000000	1.000000	0.549785
0.450000	0.650000	0.000000	5	7	0	0.000000	0.000000	0.000000	-12.528753	0.000000	1.000000	0.549856
0.550000	0.650000	0.000000	6	7	0	0.000000	0.000000	0.000000	-12.528753	0.000000	1.000000	0.549959
0.650000	0.650000	0.000000	7	7	0	0.000000	0.000000	0.000000	-12.528753	0.000000	1.000000	0.550112
0.750000	0.650000	0.000000	8	7	0	0.000000	0.000000	0.000000	-12.528753	0.000000	1.000000	0.550343
0.850000	0.650000	0.000000	9	7	0	0.000000	0.000000	0.000000	-12.528753	0.000000	1.000000	0.550677
0.950000	0.650000	0.000000	10	7	0	0.000000	0.000000	0.000000	-12.528753	0.000000	1.000000	0.550730
1.000000	0.650000	0.000000	11	7	0	0.000000	0.000000	0.000000	-13.424871	0.000000	1.000000	0.000000
0.000000	0.750000	0.000000	0	8	0	0.000000	0.000000	0.000000	-13.426184	0.000000	1.000000	0.000000
0.050000	0.750000	0.000000	1	8	0	0.000000	0.000000	0.000000	-12.528753	0.000000	1.000000	0.550023
0.150000	0.750000	0.000000	2	8	0	0.000000	0.000000	0.000000	-12.528753	0.000000	1.000000	0.549804
0.250000	0.750000	0.000000	3	8	0	0.000000	0.000000	0.000000	-12.528753	0.000000	1.000000	0.549781
0.350000	0.750000	0.000000	4	8	0	0.000000	0.000000	0.000000	-12.528753	0.000000	1.000000	0.549869
0.450000	0.750000	0.000000	5	8	0	0.000000	0.000000	0.000000	-12.528753	0.000000	1.000000	0.549981
0.550000	0.750000	0.000000	6	8	0	0.000000	0.000000	0.000000	-12.528753	0.000000	1.000000	0.550130
0.650000	0.750000	0.000000	7	8	0	0.000000	0.000000	0.000000	-12.528753	0.000000	1.000000	0.550343
0.750000	0.750000	0.000000	8	8	0	0.000000	0.000000	0.000000	-12.528753	0.000000	1.000000	0.550647
0.850000	0.750000	0.000000	9	8	0	0.000000	0.000000	0.000000	-12.528753	0.000000	1.000000	0.551047
0.950000	0.750000	0.000000	10	8	0	0.000000	0.000000	0.000000	-12.528753	0.000000	1.000000	0.551138
1.000000	0.750000	0.000000	11	8	0	0.000000	0.000000	0.000000	-13.424871	0.000000	1.000000	0.000000
0.000000	0.850000	0.000000	0	9	0	0.000000	0.000000	0.000000	-13.426184	0.000000	1.000000	0.000000
0.050000	0.850000	0.000000	1	9	0	0.000000	0.000000	0.000000	-12.528753	0.000000	1.000000	0.549963
0.150000	0.850000	0.000000	2	9	0	0.000000	0.000000	0.000000	-12.528753	0.000000	1.000000	0.549788
0.250000	0.850000	0.000000	3	9	0	0.000000	0.000000	0.000000	-12.528753	0.000000	1.000000	0.549862
0.350000	0.850000	0.000000	4	9	0	0.000000	0.000000	0.000000	-12.528753	0.000000	1.000000	0.550033
0.450000	0.850000	0.000000	5	9	0	0.000000	0.000000	0.000000	-12.528753	0.000000	1.000000	0.550199
0.550000	0.850000	0.000000	6	9	0	0.000000	0.000000	0.000000	-12.528753	0.000000	1.000000	0.550400
0.650000	0.850000	0.000000	7	9	0	0.000000	0.000000	0.000000	-12.528753	0.000000	1.000000	0.550677
0.750000	0.850000	0.000000	8	9	0	0.000000	0.000000	0.000000	-12.528753	0.000000	1.000000	0.551047
0.850000	0.850000	0.000000	9	9	0	0.000000	0.000000	0.000000	-12.528753	0.000000	1.000000	0.551496
0.950000	0.850000	0.000000	10	9	0	0.000000	0.000000	0.000000	-12.528753	0.000000	1.000000	0.551620
1.000000	0.850000	0.000000	11	9	0	0.000000	0.000000	0.000000	-13.424871	0.000000	1.000000	0.000000
0.000000	0.950000	0.000000	0	10	0	0.000000	0.000000	0.000000	-13.426184	0.000000	1.000000	0.000000
0.050000	0.950000	0.000000	1	10	0	0.000000	0.000000	0.000000	-12.528753	0.000000	1.000000	0.549877
0.150000	0.950000	0.000000	2	10	0	0.000000	0.000000	0.000000	-12.528753	0.000000	1.000000	0.549707
0.250000	0.950000	0.000000	3	10	0	0.000000	0.000000	0.000000	-12.528753	0.000000	1.000000	0.549824
0.350000	0.950000	0.000000	4	10	0	0.000000	0.000000	0.000000	-12.528753	0.000000	1.000000	0.550042
0.450000	0.950000	0.000000	5	10	0	0.000000	0.000000	0.000000	-12.528753	0.000000	1.000000	0.550220
0.550000	0.950000	0.000000	6	10	0	0.000000	0.000000	0.000000	-12.528753	0.000000	1.000000	0.550430
0.650000	0.950000	0.000000	7	10	0	0.000000	0.000000	0.000000	-12.528753	0.000000	1.000000	0.550730
0.750000	0.950000	0.000000	8	10	0	0.000000	0.000000	0.000000	-12.528753	0.000000	1.000000	0.551138
0.850000	0.950000	0.000000	9	10	0	0.000000	0.000000	0.000000	-12.528753	0.000000	1.000000	0.551620
0.950000	0.950000	0.000000	10	10	0	0.000000	0.000000	0.000000	-12.528753	0.000000	1.000000	0.551775
1.000000	0.950000	0.000000	11	10	0	0.000000	0.000000	0.000000	-13.424871	0.000000	1.000000	0.000000
0.000000	1.000000	0.000000	0	11	0	0.000000	0.000000	0.000000	-13.425746	0.000000	1.000000	0.000000
0.050000	1.000000	0.000000	1	11	0	0.000000	0.000000	0.000000	-13.424871	0.000000	1.000000	0.000000
0.150000	1.000000	0.000000	2	11	0	0.000000	0.000000	0.000000	-13.424871	0.000000	1.000000	0.000000
0.250000	1.000000	0.000000	3	11	0	0.000000	0.000000	0.000000	-13.424871	0.000000	1.000000	0.000000
0.350000	1.000000	0.000000	4	11	0	0.000000	0.000000	0.000000	-13.424871	0.000000	1.000000	0.000000
0.450000	1.000000	0.000000	5	11	0	0.000000	0.000000	0.000000	-13.424871	0.000000	1.000000	0.000000
0.550000	1.000000	0.000000	6	11	0	0.000000	0.000000	0.000000	-13.424871	0.000000	1.000000	0.000000
0.650000	1.000000	0.000000	7	11	0	0.000000	0.000000	0.000000	-13.424871	0.000000	1.000000	0.000000
0.750000	1.000000	0.000000	8	11	0	0.000000	0.000000	0.000000	-13.424871	0.000000	1.000000	0.000000
0.850000	1.000000	0.000000	9	11	0	0.000000	0.000000	0.000000	-13.424871	0.000000	1.000000	0.000000
0.950000	1.000000	0.000000	10	11	0	0.000000	0.000000	0.000000	-13.424871	0.000000	1.000000	0.000000
1.000000	1.000000	0.000000	11	11	0	0.000000	0.000000	0.000000	-13.424871	0.000000	1.000000	0.000000
0.000000	0.000000	0.050000	0	0	1	0.000000	0.000000	0.000000	-13.426184	0.000000	1.000000	0.000000
0.050000	0.000000	0.050000	1	0	1	0.000000	0.000000	0.000000	-13.426184	0.000000	1.000000	0.550511
0.150000	0.000000	0.050000	2	0	1	0.000000	0.000000	0.000000	-13.426184	0.000000	1.000000	0.550497
0.250000	0.000000	0.050000	3	0	1	0.000000	0.000000	0.000000	-13.426184	0.000000	1.000000	0.550387
0.350000	0.000000	0.050000	4	0	1	0.000000	0.000000	0.000000	-13.426184	0.000000	1.000000	0.550280
0.450000	0.000000	0.050000	5	0	1	0.000000	0.000000	0.000000	-13.426184	0.000000	1.000000	0.550196
0.550000	0.000000	0.050000	6	0	1	0.000000	0.000000	0.000000	-13.426184	0.000000	1.000000	0.550130
0.650000	0.000000	0.050000	7	0	1	0.000000	0.000000	0.000000	-13.426184	0.000000	1.000000	0.550074
0.750000	0.000000	0.050000	8	0	1	0.000000	0.000000	0.000000	-13.426184	0.000000	1.000000	0.550023
0.850000	0.000000	0.050000	9	0	1	0.000000	0.000000	0.000000	-13.426184	0.000000	1.000000	0.549963
0.950000	0.000000	0.050000	10	0	1	0.000000	0.000000	0.000000	-13.426184	0.000000	1.000000	0.549877
1.000000	0.000000	0.050000	11	0	1	0.000000	0.000000	0.000000	-13.424871	0.000000	1.000000	0.000000
0.000000	0.050000	0.050000	0	1	1	0.000000	0.000000	0.000000	-13.426184	0.000000	1.000000	0.550511
0.050000	0.050000	0.050000	1	1	1	0.004990	0.004990	-0.009980	-13.376433	0.000000	-1.000000	0.550511
0.150000	0.050000	0.050000	2	1	1	0.001234	-0.005498	0.014244	-13.309019	0.000000	-1.000000	0.550497
0.250000	0.050000	0.050000	3	1	1	-0.010829	-0.008926	0.012243	-13.315360	0.000000	-1.000000	0.550387
0.350000	0.050000	0.050000	4	1	1	-0.015264	-0.010678	0.011796	-13.324687	0.000000	-1.000000	0.550280
0.450000	0.050000	0.050000	5	1	1	-0.016426	-0.011940	0.011984	-13.330213	0.000000	-1.000000	0.550196
0.550000	0.050000	0.050000	6	1	1	-0.015780	-0.012890	0.012200	-13.334132	0.000000	-1.000000	0.550130
0.650000	0.050000	0.050000	7	1	1	-0.013754	-0.013624	0.012288	-13.337123	0.000000	-1.000000	0.550074
0.750000	0.050000	0.050000	8	1	1	-0.010396	-0.014183	0.012161	-13.339513	0.000000	-1.000000	0.550023
0.850000	0.050000	0.050000	9	1	1	-0.005808	-0.014348	0.011782	-13.341498	0.000000	-1.000000	0.549963
0.950000	0.050000	0.050000	10	1	1	-0.001621	-0.013193	0.011573	-13.343878	0.000000	-1.000000	0.549877
1.000000	0.050000	0.050000	11	1	1	0.000000	0.000000	0.000000	-13.424871	0.000000	1.000000	0.549877
0.000000	0.150000	0.050000	0	2	1	0.000000	0.000000	0.000000	-13.426184	0.000000	1.000000	0.550497
0.050000	0.150000	0.050000	1	2	1	-0.005498	0.001234	0.014244	-13.309019	0.000000	-1.000000	0.550497
0.150000	0.150000	0.050000	2	2	1	-0.015204	-0.015204	0.008418	-13.326121	0.000000	-1.000000	0.550384
0.250000	0.150000	0.050000	3	2	1	-0.021599	-0.021571	0.005905	-13.338731	0.000000	-1.000000	0.550212
0.350000	0.150000	0.050000	4	2	1	-0.024554	-0.025387	0.004800	-13.345993	0.000000	-1.000000	0.550072
0.450000	0.150000	0.050000	5	2	1	-0.025204	-0.028133	0.004134	-13.351171	0.000000	-1.000000	0.549968
0.550000	0.150000	0.050000	6	2	1	-0.024313	-0.030121	0.003571	-13.355105	0.000000	-1.000000	0.549891
0.650000	0.150000	0.050000	7	2	1	-0.022121	-0.031511	0.002842	-13.358196	0.000000	-1.000000	0.549837
0.750000	0.150000	0.050000	8	2	1	-0.018499	-0.032409	0.001842	-13.360776	0.000000	-1.000000	0.549804
0.850000	0.150000	0.050000	9	2	1	-0.013094	-0.032386	0.000487	-13.363137	0.000000	-1.000000	0.549788
0.950000	0.150000	0.050000	10	2	1	-0.004945	-0.030031	-0.001301	-13.365999	0.000000	-1.000000	0.549707
1.000000	0.150000	0.050000	11	2	1	0.000000	0.000000	0.000000	-13.424871	0.000000	1.000000	0.549707
0.000000	0.250000	0.050000	0	3	1	0.000000	0.000000	0.000000	-13.426184	0.000000	1.000000	0.550387
0.050000	0.250000	0.050000	1	3	1	-0.008926	-0.010829	0.012243	-13.315360	0.000000	-1.000000	0.550387
0.150000	0.250000	0.050000	2	3	1	-0.021571	-0.021599	0.005905	-13.338731	0.000000	-1.000000	0.550212
0.250000	0.250000	0.050000	3	3	1	-0.027125	-0.027125	0.003670	-13.348862	0.000000	-1.000000	0.550036
0.350000	0.250000	0.050000	4	3	1	-0.029522	-0.031115	0.002260	-13.355794	0.000000	-1.000000	0.549909
0.450000	0.250000	0.050000	5	3	1	-0.029862	-0.033968	0.001359	-13.361096	0.000000	-1.000000	0.549826
0.550000	0.250000	0.050000	6	3	1	-0.028828	-0.035883	0.000608	-13.365255	0.000000	-1.000000	0.549775
0.650000	0.250000	0.050000	7	3	1	-0.026542	-0.036889	-0.000358	-13.368537	0.000000	-1.000000	0.549757
0.750000	0.250000	0.050000	8	3	1	-0.022749	-0.037084	-0.001688	-13.371305	0.000000	-1.000000	0.549781
0.850000	0.250000	0.050000	9	3	1	-0.016681	-0.036204	-0.003621	-13.373932	0.000000	-1.000000	0.549862
0.950000	0.250000	0.050000	10	3	1	-0.006467	-0.033472	-0.006670	-13.377084	0.000000	-1.000000	0.549824
1.000000	0.250000	0.050000	11	3	1	0.000000	0.000000	0.000000	-13.424871	0.000000	1.000000	0.549824
0.000000	0.350000	0.050000	0	4	1	0.000000	0.000000	0.000000	-13.426184	0.000000	1.000000	0.550280
0.050000	0.350000	0.050000	1	4	1	-0.010678	-0.015264	0.011796	-13.324687	0.000000	-1.000000	0.550280
0.150000	0.350000	0.050000	2	4	1	-0.025387	-0.024554	0.004800	-13.345993	0.000000	-1.000000	0.550072
0.250000	0.350000	0.050000	3	4	1	-0.031115	-0.029522	0.002260	-13.355794	0.000000	-1.000000	0.549909
0.350000	0.350000	0.050000	4	4	1	-0.033205	-0.033205	0.000785	-13.362941	0.000000	-1.000000	0.549815
0.450000	0.350000	0.050000	5	4	1	-0.033270	-0.035827	-0.000050	-13.368712	0.000000	-1.000000	0.549768
0.550000	0.350000	0.050000	6	4	1	-0.032099	-0.037510	-0.000635	-13.373389	0.000000	-1.000000	0.549756
0.650000	0.350000	0.050000	7	4	1	-0.029799	-0.038191	-0.001270	-13.376980	0.000000	-1.000000	0.549785
0.750000	0.350000	0.050000	8	4	1	-0.025965	-0.037815	-0.002278	-13.379741	0.000000	-1.000000	0.549869
0.850000	0.350000	0.050000	9	4	1	-0.019523	-0.036190	-0.004205	-13.382145	0.000000	-1.000000	0.550033
0.950000	0.350000	0.050000	10	4	1	-0.007729	-0.032781	-0.008216	-13.385021	0.000000	-1.000000	0.550042
1.000000	0.350000	0.050000	11	4	1	0.000000	0.000000	0.000000	-13.424871	0.000000	1.000000	0.550042
0.000000	0.450000	0.050000	0	5	1	0.000000	0.000000	0.000000	-13.426184	0.000000	1.000000	0.550196
0.050000	0.450000	0.050000	1	5	1	-0.011940	-0.016426	0.011984	-13.330213	0.000000	-1.000000	0.550196
0.150000	0.450000	0.050000	2	5	1	-0.028133	-0.025204	0.004134	-13.351171	0.000000	-1.000000	0.549968
0.250000	0.450000	0.050000	3	5	1	-0.033968	-0.029862	0.001359	-13.361096	0.000000	-1.000000	0.549826
0.350000	0.450000	0.050000	4	5	1	-0.035827	-0.033270	-0.000050	-13.368712	0.000000	-1.000000	0.549768
0.450000	0.450000	0.050000	5	5	1	-0.035744	-0.035744	-0.000723	-13.375186	0.000000	-1.000000	0.549762
0.550000	0.450000	0.050000	6	5	1	-0.034522	-0.037423	-0.001155	-13.380557	0.000000	-1.000000	0.549790
0.650000	0.450000	0.050000	7	5	1	-0.032167	-0.038261	-0.001611	-13.384898	0.000000	-1.000000	0.549856
0.750000	0.450000	0.050000	8	5	1	-0.028172	-0.038044	-0.002371	-13.388276	0.000000	-1.000000	0.549981
0.850000	0.450000	0.050000	9	5	1	-0.021275	-0.036423	-0.004022	-13.390893	0.000000	-1.000000	0.550199
0.950000	0.450000	0.050000	10	5	1	-0.008440	-0.032912	-0.007822	-13.393277	0.000000	-1.000000	0.550220
1.000000	0.450000	0.050000	11	5	1	0.000000	0.000000	0.000000	-13.424871	0.000000	1.000000	0.550220
0.000000	0.550000	0.050000	0	6	1	0.000000	0.000000	0.000000	-13.426184	0.000000	1.000000	0.550130
0.050000	0.550000	0.050000	1	6	1	-0.012890	-0.015780	0.012200	-13.334132	0.000000	-1.000000	0.550130
0.150000	0.550000	0.050000	2	6	1	-0.030121	-0.024313	0.003571	-13.355105	0.000000	-1.000000	0.549891
0.250000	0.550000	0.050000	3	6	1	-0.035883	-0.028828	0.000608	-13.365255	0.000000	-1.000000	0.549775
0.350000	0.550000	0.050000	4	6	1	-0.037510	-0.032099	-0.000635	-13.373389	0.000000	-1.000000	0.549756
0.450000	0.550000	0.050000	5	6	1	-0.037423	-0.034522	-0.001155	-13.380557	0.000000	-1.000000	0.549790
0.550000	0.550000	0.050000	6	6	1	-0.036316	-0.036316	-0.001625	-13.386926	0.000000	-1.000000	0.549854
0.650000	0.550000	0.050000	7	6	1	-0.033978	-0.037475	-0.002195	-13.392381	0.000000	-1.000000	0.549959
0.750000	0.550000	0.050000	8	6	1	-0.029778	-0.037726	-0.003121	-13.396883	0.000000	-1.000000	0.550130
0.850000	0.550000	0.050000	9	6	1	-0.022344	-0.036648	-0.004910	-13.400483	0.000000	-1.000000	0.550400
0.950000	0.550000	0.050000	10	6	1	-0.008791	-0.033833	-0.008488	-13.403401	0.000000	-1.000000	0.550430
1.000000	0.550000	0.050000	11	6	1	0.000000	0.000000	0.000000	-13.424871	0.000000	1.000000	0.550430
0.000000	0.650000	0.050000	0	7	1	0.000000	0.000000	0.000000	-13.426184	0.000000	1.000000	0.550074
0.050000	0.650000	0.050000	1	7	1	-0.013624	-0.013754	0.012288	-13.337123	0.000000	-1.000000	0.550074
0.150000	0.650000	0.050000	2	7	1	-0.031511	-0.022121	0.002842	-13.358196	0.000000	-1.000000	0.549837
0.250000	0.650000	0.050000	3	7	1	-0.036889	-0.026542	-0.000358	-13.368537	0.000000	-1.000000	0.549757
0.350000	0.650000	0.050000	4	7	1	-0.038191	-0.029799	-0.001270	-13.376980	0.000000	-1.000000	0.549785
0.450000	0.650000	0.050000	5	7	1	-0.038261	-0.032167	-0.001611	-13.384898	0.000000	-1.000000	0.549856
0.550000	0.650000	0.050000	6	7	1	-0.037475	-0.033978	-0.002195	-13.392381	0.000000	-1.000000	0.549959
0.650000	0.650000	0.050000	7	7	1	-0.035303	-0.035303	-0.003007	-13.399137	0.000000	-1.000000	0.550112
0.750000	0.650000	0.050000	8	7	1	-0.030985	-0.035854	-0.004240	-13.405057	0.000000	-1.000000	0.550343
0.850000	0.650000	0.050000	9	7	1	-0.023128	-0.035236	-0.006306	-13.410141	0.000000	-1.000000	0.550677
0.950000	0.650000	0.050000	10	7	1	-0.009042	-0.033253	-0.009926	-13.414348	0.000000	-1.000000	0.550730
1.000000	0.650000	0.050000	11	7	1	0.000000	0.000000	0.000000	-13.424871	0.000000	1.000000	0.550730
0.000000	0.750000	0.050000	0	8	1	0.000000	0.000000	0.000000	-13.426184	0.000000	1.000000	0.550023
0.050000	0.750000	0.050000	1	8	1	-0.014183	-0.010396	0.012161	-13.339513	0.000000	-1.000000	0.550023
0.150000	0.750000	0.050000	2	8	1	-0.032409	-0.018499	0.001842	-13.360776	0.000000	-1.000000	0.549804
0.250000	0.750000	0.050000	3	8	1	-0.037084	-0.022749	-0.001688	-13.371305	0.000000	-1.000000	0.549781
0.350000	0.750000	0.050000	4	8	1	-0.037815	-0.025965	-0.002278	-13.379741	0.000000	-1.000000	0.549869
0.450000	0.750000	0.050000	5	8	1	-0.038044	-0.028172	-0.002371	-13.388276	0.000000	-1.000000	0.549981
0.550000	0.750000	0.050000	6	8	1	-0.037726	-0.029778	-0.003121	-13.396883	0.000000	-1.000000	0.550130
0.650000	0.750000	0.050000	7	8	1	-0.035854	-0.030985	-0.004240	-13.405057	0.000000	-1.000000	0.550343
0.750000	0.750000	0.050000	8	8	1	-0.031525	-0.031525	-0.005807	-13.412626	0.000000	-1.000000	0.550647
0.850000	0.750000	0.050000	9	8	1	-0.023419	-0.031065	-0.008111	-13.419515	0.000000	-1.000000	0.551047
0.950000	0.750000	0.050000	10	8	1	-0.009108	-0.029697	-0.011782	-13.425397	0.000000	-1.000000	0.551138
1.000000	0.750000	0.050000	11	8	1	0.000000	0.000000	0.000000	-13.424871	0.000000	1.000000	0.551138
0.000000	0.850000	0.050000	0	9	1	0.000000	0.000000	0.000000	-13.426184	0.000000	1.000000	0.549963
0.050000	0.850000	0.050000	1	9	1	-0.014348	-0.005808	0.011782	-13.341498	0.000000	-1.000000	0.549963
0.150000	0.850000	0.050000	2	9	1	-0.032386	-0.013094	0.000487	-13.363137	0.000000	-1.000000	0.549788
0.250000	0.850000	0.050000	3	9	1	-0.036204	-0.016681	-0.003621	-13.373932	0.000000	-1.000000	0.549862
0.350000	0.850000	0.050000	4	9	1	-0.036190	-0.019523	-0.004205	-13.382145	0.000000	-1.000000	0.550033
0.450000	0.850000	0.050000	5	9	1	-0.036423	-0.021275	-0.004022	-13.390893	0.000000	-1.000000	0.550199
0.550000	0.850000	0.050000	6	9	1	-0.036648	-0.022344	-0.004910	-13.400483	0.000000	-1.000000	0.550400
0.650000	0.850000	0.050000	7	9	1	-0.035236	-0.023128	-0.006306	-13.410141	0.000000	-1.000000	0.550677
0.750000	0.850000	0.050000	8	9	1	-0.031065	-0.023419	-0.008111	-13.419515	0.000000	-1.000000	0.551047
0.850000	0.850000	0.050000	9	9	1	-0.022934	-0.022934	-0.010444	-13.428355	0.000000	-1.000000	0.551496
0.950000	0.850000	0.050000	10	9	1	-0.008856	-0.021940	-0.013939	-13.435987	0.000000	-1.000000	0.551620
1.000000	0.850000	0.050000	11	9	1	0.000000	0.000000	0.000000	-13.424871	0.000000	1.000000	0.551620
0.000000	0.950000	0.050000	0	10	1	0.000000	0.000000	0.000000	-13.426184	0.000000	1.000000	0.549877
0.050000	0.950000	0.050000	1	10	1	-0.013193	-0.001621	0.011573	-13.343878	0.000000	-1.000000	0.549877
0.150000	0.950000	0.050000	2	10	1	-0.030031	-0.004945	-0.001301	-13.365999	0.000000	-1.000000	0.549707
0.250000	0.950000	0.050000	3	10	1	-0.033472	-0.006467	-0.006670	-13.377084	0.000000	-1.000000	0.549824
0.350000	0.950000	0.050000	4	10	1	-0.032781	-0.007729	-0.008216	-13.385021	0.000000	-1.000000	0.550042
0.450000	0.950000	0.050000	5	10	1	-0.032912	-0.008440	-0.007822	-13.393277	0.000000	-1.000000	0.550220
0.550000	0.950000	0.050000	6	10	1	-0.033833	-0.008791	-0.008488	-13.403401	0.000000	-1.000000	0.550430
0.650000	0.950000	0.050000	7	10	1	-0.033253	-0.009042	-0.009926	-13.414348	0.000000	-1.000000	0.550730
0.750000	0.950000	0.050000	8	10	1	-0.029697	-0.009108	-0.011782	-13.425397	0.000000	-1.000000	0.551138
0.850000	0.950000	0.050000	9	10	1	-0.021940	-0.008856	-0.013939	-13.435987	0.000000	-1.000000	0.551620
0.950000	0.950000	0.050000	10	10	1	-0.008428	-0.008428	-0.016856	-13.445086	0.000000	-1.000000	0.551775
1.000000	0.950000	0.050000	11	10	1	0.000000	0.000000	0.000000	-13.424871	0.000000	1.000000	0.551775
0.000000	1.000000	0.050000	0	11	1	0.000000	0.000000	0.000000	-13.426184	0.000000	1.000000	0.000000
0.050000	1.000000	0.050000	1	11	1	0.000000	0.000000	0.000000	-13.424871	0.000000	1.000000	0.549877
0.150000	1.000000	0.050000	2	11	1	0.000000	0.000000	0.000000	-13.424871	0.000000	1.000000	0.549707
0.250000	1.000000	0.050000	3	11	1	0.000000	0.000000	0.000000	-13.424871	0.000000	1.000000	0.549824
0.350000	1.000000	0.050000	4	11	1	0.000000	0.000000	0.000000	-13.424871	0.000000	1.000000	0.550042
0.450000	1.000000	0.050000	5	11	1	0.000000	0.000000	0.000000	-13.424871	0.000000	1.000000	0.550220
0.550000	1.000000	0.050000	6	11	1	0.000000	0.000000	0.000000	-13.424871	0.000000	1.000000	0.550430
0.650000	1.000000	0.050000	7	11	1	0.000000	0.000000	0.000000	-13.424871	0.000000	1.000000	0.550730
0.750000	1.000000	0.050000	8	11	1	0.000000	0.000000	0.000000	-13.424871	0.000000	1.000000	0.551138
0.850000	1.000000	0.050000	9	11	1	0.000000	0.000000	0.000000	-13.424871	0.000000	1.000000	0.551620
0.950000	1.000000	0.050000	10	11	1	0.000000	0.000000	0.000000	-13.424871	0.000000	1.000000	0.551775
1.000000	1.000000	0.050000	11	11	1	0.000000	0.000000	0.000000	-13.424871	0.000000	1.000000	0.000000
0.000000	0.000000	0.150000	0	0	2	0.000000	0.000000	0.000000	-13.426184	0.000000	1.000000	0.000000
0.050000	0.000000	0.150000	1	0	2	0.000000	0.000000	0.000000	-13.426184	0.000000	1.000000	0.432754
0.150000	0.000000	0.150000	2	0	2	0.000000	0.000000	0.000000	-13.426184	0.000000	1.000000	0.432813
0.250000	0.000000	0.150000	3	0	2	0.000000	0.000000	0.000000	-13.426184	0.000000	1.000000	0.432693
0.350000	0.000000	0.150000	4	0	2	0.000000	0.000000	0.000000	-13.426184	0.000000	1.000000	0.432532
0.450000	0.000000	0.150000	5	0	2	0.000000	0.000000	0.000000	-13.426184	0.000000	1.000000	0.432400
0.550000	0.000000	0.150000	6	0	2	0.000000	0.000000	0.000000	-13.426184	0.000000	1.000000	0.432291
0.650000	0.000000	0.150000	7	0	2	0.000000	0.000000	0.000000	-13.426184	0.000000	1.000000	0.432195
0.750000	0.000000	0.150000	8	0	2	0.000000	0.000000	0.000000	-13.426184	0.000000	1.000000	0.432108
0.850000	0.000000	0.150000	9	0	2	0.000000	0.000000	0.000000	-13.426184	0.000000	1.000000	0.432026
0.950000	0.000000	0.150000	10	0	2	0.000000	0.000000	0.000000	-13.426184	0.000000	1.000000	0.431963